ITEM: TIMESTEP
2000000
ITEM: NUMBER OF ATOMS
8214
ITEM: BOX BOUNDS pp ff ff
0.0000000000000000e+00 1.6186228220311300e+01
0.0000000000000000e+00 1.7368087604622701e+02
0.0000000000000000e+00 7.0088424151210802e+01
ITEM: ATOMS id type x y z mass c_KE c_PE
3885 1 2.68851 2.16433 0.63997 180.95 0 -6.32302
4037 1 0.0067912 1.20364 0.643721 180.95 0 -5.47804
4018 1 4.04885 1.21927 2.98279 180.95 0 -6.26498
3872 1 8.09079 1.20968 0.641438 180.95 0 -5.47281
3873 1 6.74002 2.15087 2.89046 180.95 7.28207e-08 -7.188
3722 1 10.7929 2.16445 0.632696 180.95 0 -6.31654
3865 1 12.1379 1.22998 2.97196 180.95 0 -6.27277
3721 1 14.8377 2.14859 2.8931 180.95 1.37992e-07 -7.18516
3903 1 0.00123936 4.06787 0.638773 180.95 0 -7.17975
3904 1 2.70699 5.00825 0.629421 180.95 0 -7.12495
3905 1 1.33959 5.87157 2.91547 180.95 8.53484e-08 -8.1133
4038 1 1.33787 2.9236 2.90619 180.95 1.72264e-07 -7.85328
3738 1 5.38765 5.96697 0.641322 180.95 0 -7.14636
3886 1 5.38536 3.11239 0.634783 180.95 0 -6.84022
3887 1 4.02661 3.97336 2.91787 180.95 5.44583e-08 -8.10232
3728 1 8.08793 4.06596 0.631954 180.95 0 -7.16845
3730 1 9.43213 5.87513 2.91562 180.95 3.01303e-08 -8.10991
3874 1 9.43037 2.92455 2.89962 180.95 2.07608e-07 -7.86331
3888 1 6.7296 4.94678 2.91853 180.95 4.51133e-07 -8.05042
3724 1 12.1225 3.98143 2.91613 180.95 4.65143e-07 -8.10363
3729 1 10.7811 5.01313 0.629582 180.95 0 -7.12421
3577 1 13.4945 5.96128 0.638623 180.95 0 -7.14488
3723 1 13.4964 3.10382 0.644721 180.95 0 -6.83601
3725 1 14.8262 4.94958 2.92296 180.95 6.51761e-07 -8.04843
3752 1 2.69581 7.85831 0.620394 180.95 0 -7.1441
3925 1 -0.00544194 6.92131 0.63204 180.95 0 -7.1455
3926 1 1.34437 8.76587 2.9118 180.95 5.56092e-09 -8.10606
3753 1 5.39948 8.82334 0.626277 180.95 0 -7.14925
3906 1 4.03163 6.85995 2.91764 180.95 2.58092e-08 -8.10173
3739 1 8.0842 6.90507 0.630792 180.95 0 -7.15114
3740 1 6.73104 7.81844 2.91618 180.95 2.49468e-07 -8.09177
3741 1 9.43131 8.76739 2.90957 180.95 1.75041e-07 -8.10401
3579 1 10.7835 7.86909 0.626371 180.95 0 -7.139
3731 1 12.1259 6.86323 2.91559 180.95 4.19115e-08 -8.10565
3578 1 14.8296 7.81886 2.91893 180.95 1.17986e-07 -8.08754
3580 1 13.4913 8.81429 0.633325 180.95 0 -7.15584
3770 1 0.00560769 9.76715 0.624424 180.95 0 -7.14533
3771 1 2.70444 10.7138 0.625201 180.95 0 -7.15165
3772 1 1.34347 11.6387 2.90656 180.95 1.10413e-07 -8.09657
3595 1 5.39729 11.6674 0.615174 180.95 0 -7.14678
3754 1 4.0401 9.7277 2.91096 180.95 4.97878e-08 -8.09377
3585 1 8.09022 9.76144 0.613428 180.95 0 -7.14861
3587 1 9.43575 11.6377 2.90258 180.95 4.6782e-08 -8.09717
3755 1 6.73694 10.6845 2.90251 180.95 2.42596e-07 -8.0959
3581 1 12.1307 9.73103 2.91094 180.95 4.76339e-07 -8.09325
3586 1 10.7905 10.7065 0.622549 180.95 0 -7.14718
3433 1 13.4882 11.6774 0.609595 180.95 0 -7.14635
3582 1 14.8285 10.685 2.90687 180.95 7.76913e-09 -8.09783
3609 1 2.70426 13.5789 0.612729 180.95 0 -7.14643
3627 1 0.0041912 15.4774 0.602639 180.95 0 -7.14382
3792 1 0.00834336 12.624 0.620497 180.95 0 -7.14877
3793 1 1.34148 14.5029 2.89806 180.95 3.81366e-07 -8.09946
3610 1 5.39105 14.5201 0.61942 180.95 0 -7.14789
3611 1 4.03934 15.4547 2.90229 180.95 5.43492e-08 -8.09785
3773 1 4.03952 12.5899 2.90233 180.95 4.86918e-07 -8.09961
3441 1 8.0932 15.4692 0.611369 180.95 0 -7.14595
3596 1 8.10239 12.6249 0.61602 180.95 0 -7.147
3597 1 6.73742 13.5457 2.9008 180.95 3.28556e-07 -8.09595
3598 1 9.43595 14.4998 2.90097 180.95 9.58138e-08 -8.09636
3435 1 10.798 13.5708 0.621957 180.95 0 -7.1525
3437 1 12.1328 15.458 2.90014 180.95 4.06018e-07 -8.1014
3588 1 12.1337 12.5932 2.90656 180.95 2.39686e-07 -8.09798
3434 1 14.8315 13.5493 2.90485 180.95 9.95301e-08 -8.09193
3436 1 13.4858 14.5176 0.621829 180.95 0 -7.14728
3628 1 2.6971 16.4252 0.613928 180.95 0 -7.15093
3629 1 1.34104 17.3585 2.89718 180.95 7.61847e-09 -8.09468
3649 1 0.00737374 18.3274 0.60959 180.95 0 -7.15203
3451 1 5.39333 17.3768 0.615358 180.95 0 -7.15154
3630 1 4.03852 18.3154 2.89892 180.95 3.41423e-08 -8.09683
3443 1 9.43693 17.3607 2.89884 180.95 2.62139e-07 -8.09279
3452 1 8.10211 18.3262 0.614399 180.95 0 -7.15468
3612 1 6.73803 16.408 2.89856 180.95 1.0172e-07 -8.09695
3442 1 10.7851 16.4275 0.605183 180.95 0 -7.15036
3444 1 12.1306 18.3183 2.8932 180.95 6.84052e-08 -8.09439
3289 1 13.481 17.3818 0.61441 180.95 0 -7.15098
3438 1 14.832 16.4102 2.89436 180.95 6.70994e-08 -8.09578
3465 1 2.69891 19.2701 0.602505 180.95 0 -7.15077
3483 1 -0.00588244 21.1674 0.596717 180.95 0 -7.15054
3650 1 1.34262 20.2198 2.89131 180.95 5.0184e-08 -8.09987
3466 1 5.39164 20.214 0.598949 180.95 0 -7.14538
3467 1 4.03995 21.1682 2.88205 180.95 4.15254e-08 -8.09779
3297 1 8.09941 21.1711 0.595544 180.95 0 -7.1525
3453 1 6.73788 19.2667 2.89135 180.95 3.32357e-07 -8.09496
3454 1 9.43755 20.2174 2.8889 180.95 9.99069e-08 -8.09819
3291 1 10.7882 19.2804 0.595555 180.95 0 -7.15358
3293 1 12.1303 21.1711 2.8799 180.95 1.20969e-07 -8.09302
3290 1 14.8316 19.2648 2.8916 180.95 4.35598e-07 -8.09711
3292 1 13.4952 20.2275 0.600305 180.95 0 -7.14681
3484 1 2.6907 22.1282 0.593481 180.95 0 -7.14747
3485 1 1.34241 23.0727 2.87877 180.95 2.34878e-07 -8.08959
3505 1 -0.0072094 24.0284 0.593024 180.95 0 -7.15175
3307 1 5.38736 23.072 0.60231 180.95 0 -7.15514
3486 1 4.03683 24.0238 2.87987 180.95 4.42217e-08 -8.09233
3299 1 9.43425 23.0703 2.87448 180.95 2.87351e-08 -8.09851
3308 1 8.08943 24.0327 0.583554 180.95 0 -7.15062
3468 1 6.73678 22.1171 2.88231 180.95 2.073e-07 -8.09078
3298 1 10.7864 22.1231 0.588857 180.95 0 -7.14541
3300 1 12.1323 24.0215 2.8719 180.95 2.14434e-07 -8.09376
3145 1 13.4969 23.0774 0.592639 180.95 0 -7.15397
3294 1 14.8293 22.1238 2.8856 180.95 6.4956e-08 -8.09918
3321 1 2.70721 24.9838 0.583447 180.95 0 -7.14812
3339 1 -0.0102447 26.8711 0.573562 180.95 0 -7.14929
3340 1 2.70597 27.8145 0.587756 180.95 0 -7.15027
3506 1 1.34101 25.9256 2.87276 180.95 5.56385e-08 -8.10328
3322 1 5.39367 25.9314 0.584215 180.95 0 -7.15582
3323 1 4.04141 26.8743 2.8753 180.95 1.63411e-07 -8.09093
3153 1 8.0836 26.8754 0.573011 180.95 0 -7.14521
3309 1 6.73645 24.971 2.8723 180.95 1.49432e-07 -8.09787
3310 1 9.43379 25.9231 2.8644 180.95 1.85772e-07 -8.10001
3324 1 6.73618 27.8239 2.86743 180.95 4.37787e-08 -8.09822
3147 1 10.7966 24.9674 0.576118 180.95 0 -7.14503
3149 1 12.1333 26.8743 2.86663 180.95 6.16286e-09 -8.10063
3154 1 10.7828 27.8293 0.575768 180.95 0 -7.15377
3146 1 14.827 24.9766 2.8746 180.95 3.16939e-08 -8.0976
3148 1 13.4805 25.9264 0.574274 180.95 0 -7.14733
3150 1 14.8334 27.8239 2.86493 180.95 9.47771e-08 -8.09351
3177 1 2.69855 30.6643 0.569242 180.95 0 -7.15525
3341 1 1.34087 28.7761 2.85972 180.95 2.12527e-07 -8.09542
3361 1 -0.0089776 29.731 0.573493 180.95 0 -7.15121
3163 1 5.40073 28.7799 0.572848 180.95 0 -7.1505
3342 1 4.04129 29.7248 2.8635 180.95 1.83615e-07 -8.09902
3155 1 9.43354 28.7736 2.86433 180.95 9.64581e-08 -8.09478
3164 1 8.08595 29.7183 0.568307 180.95 0 -7.1566
3165 1 6.74135 30.6744 2.86129 180.95 3.83926e-08 -8.09373
3003 1 10.7929 30.6772 0.569384 180.95 0 -7.15252
3156 1 12.132 29.7246 2.86334 180.95 1.33107e-07 -8.0955
3001 1 13.4792 28.7677 0.579077 180.95 0 -7.1525
3002 1 14.832 30.6744 2.8652 180.95 2.03087e-07 -8.09349
3195 1 -0.000955572 32.5649 0.561271 180.95 0 -7.14994
3196 1 2.70312 33.5282 0.552887 180.95 0 -7.14899
3362 1 1.34497 31.6266 2.85446 180.95 9.30101e-08 -8.09539
3178 1 5.40322 31.6135 0.572174 180.95 0 -7.15423
3179 1 4.0454 32.5753 2.84867 180.95 1.81942e-07 -8.09342
3009 1 8.09969 32.5776 0.561488 180.95 0 -7.15099
3166 1 9.43484 31.6244 2.85429 180.95 9.84015e-08 -8.09381
3180 1 6.73942 33.5248 2.84205 180.95 2.41366e-07 -8.09748
3005 1 12.1346 32.575 2.85278 180.95 2.92769e-09 -8.09813
3010 1 10.7912 33.5148 0.558751 180.95 0 -7.14805
3004 1 13.4973 31.6165 0.575365 180.95 0 -7.15565
3006 1 14.8363 33.5272 2.84917 180.95 1.05702e-07 -8.097
3033 1 2.69065 36.363 0.53748 180.95 0 -7.15045
3197 1 1.34457 34.4739 2.84304 180.95 1.04815e-07 -8.09281
3217 1 0.00133462 35.4234 0.553278 180.95 0 -7.15143
3019 1 5.4009 34.4716 0.546065 180.95 0 -7.14775
3198 1 4.04166 35.4211 2.83517 180.95 4.08286e-07 -8.10171
3011 1 9.43678 34.4733 2.84532 180.95 1.70054e-07 -8.09594
3020 1 8.09578 35.4159 0.560883 180.95 0 -7.1553
3021 1 6.73769 36.3708 2.83955 180.95 7.01161e-08 -8.09166
2859 1 10.7956 36.3674 0.546854 180.95 0 -7.14687
3012 1 12.1363 35.424 2.8407 180.95 1.41787e-07 -8.09241
2857 1 13.4892 34.459 0.556024 180.95 0 -7.15327
2858 1 14.8333 36.3745 2.83618 180.95 9.3143e-08 -8.09461
3051 1 0.00816988 38.2666 0.545249 180.95 0 -7.1561
3052 1 2.70055 39.2214 0.526068 180.95 0 -7.14897
3053 1 1.34562 40.1715 2.81567 180.95 4.78989e-08 -8.10053
3218 1 1.34618 37.3226 2.83222 180.95 1.78609e-07 -8.09258
2875 1 5.40258 40.1522 0.530538 180.95 0 -7.15304
3034 1 5.39393 37.3076 0.552791 180.95 0 -7.15139
3035 1 4.03543 38.2716 2.82751 180.95 6.16325e-08 -8.09442
2865 1 8.08572 38.2719 0.542101 180.95 0 -7.15414
2867 1 9.43635 40.1685 2.82443 180.95 1.69811e-07 -8.09709
3022 1 9.43554 37.3237 2.83105 180.95 1.48556e-07 -8.09593
3036 1 6.73561 39.221 2.83024 180.95 1.37419e-07 -8.09694
2861 1 12.1329 38.2713 2.83133 180.95 1.03602e-07 -8.09565
2866 1 10.8009 39.2131 0.538638 180.95 0 -7.15278
2713 1 13.4942 40.1618 0.537487 180.95 0 -7.15058
2860 1 13.4895 37.3245 0.539297 180.95 0 -7.15454
2862 1 14.8332 39.2204 2.82939 180.95 1.98191e-07 -8.0942
2889 1 2.70298 42.0659 0.514222 180.95 0 -7.14649
3073 1 -0.00756262 41.1086 0.516584 180.95 0 -7.15348
3074 1 1.34301 43.0162 2.80072 180.95 1.85564e-07 -8.0914
2890 1 5.39503 42.9955 0.514879 180.95 0 -7.15377
3054 1 4.04076 41.1176 2.81036 180.95 6.41219e-08 -8.09773
2876 1 8.08725 41.1073 0.535496 180.95 0 -7.15207
2877 1 6.7366 42.0657 2.81374 180.95 1.93312e-07 -8.09244
2878 1 9.43729 43.0131 2.81045 180.95 1.07627e-07 -8.09201
2715 1 10.7987 42.0541 0.532685 180.95 0 -7.15438
2868 1 12.1355 41.1173 2.82229 180.95 1.73402e-07 -8.0968
2714 1 14.8363 42.0651 2.81674 180.95 8.35683e-08 -8.09672
2716 1 13.4972 43.0007 0.527153 180.95 0 -7.15425
2907 1 -0.0101019 43.9517 0.510716 180.95 0 -7.15248
2908 1 2.70277 44.9065 0.501069 180.95 0 -7.15349
2909 1 1.34405 45.858 2.7899 180.95 3.96597e-08 -8.0934
2731 1 5.40041 45.8403 0.495925 180.95 0 -7.15371
2891 1 4.04074 43.9624 2.79881 180.95 2.19441e-08 -8.09755
2721 1 8.09939 43.9625 0.52247 180.95 0 -7.15285
2723 1 9.43805 45.8588 2.79616 180.95 4.12686e-07 -8.09825
2892 1 6.7376 44.9105 2.80007 180.95 3.78748e-07 -8.09309
2717 1 12.1338 43.9632 2.80185 180.95 9.99395e-08 -8.09441
2722 1 10.7932 44.9053 0.498037 180.95 0 -7.15161
2569 1 13.499 45.855 0.493388 180.95 0 -7.1547
2718 1 14.8322 44.9139 2.795 180.95 7.27096e-08 -8.0963
2745 1 2.70138 47.7462 0.486694 180.95 0 -7.14788
2929 1 0.00693138 46.7964 0.492066 180.95 0 -7.15078
2930 1 1.34132 48.6988 2.77502 180.95 1.27139e-07 -8.09881
2746 1 5.40087 48.6941 0.484446 180.95 0 -7.1522
2910 1 4.04125 46.8052 2.78199 180.95 2.25588e-07 -8.09523
2732 1 8.09952 46.7857 0.499984 180.95 0 -7.15245
2733 1 6.73774 47.7492 2.7824 180.95 7.99032e-08 -8.09746
2734 1 9.43311 48.6986 2.77979 180.95 1.11521e-07 -8.09117
2571 1 10.7963 47.7528 0.497654 180.95 0 -7.15143
2724 1 12.1356 46.8059 2.78743 180.95 1.25863e-07 -8.09559
2570 1 14.8316 47.7527 2.77495 180.95 1.31595e-07 -8.09351
2572 1 13.4819 48.6931 0.483004 180.95 0 -7.14732
2763 1 0.00297327 49.6453 0.473091 180.95 0 -7.15355
2764 1 2.70543 50.5849 0.486261 180.95 0 -7.15435
2765 1 1.3398 51.5415 2.76296 180.95 4.06413e-08 -8.09471
2785 1 0.00650577 52.4764 0.466639 180.95 0 -7.14989
2587 1 5.38933 51.53 0.464435 180.95 0 -7.15081
2747 1 4.04293 49.6439 2.77458 180.95 1.18908e-08 -8.09365
2766 1 4.04035 52.4896 2.75645 180.95 4.78395e-08 -8.09506
2577 1 8.08916 49.6297 0.486705 180.95 0 -7.15376
2579 1 9.4354 51.5382 2.75888 180.95 7.39185e-08 -8.09379
2588 1 8.09261 52.4851 0.471407 180.95 0 -7.15824
2748 1 6.73653 50.595 2.76462 180.95 1.79596e-07 -8.09679
2573 1 12.1302 49.6476 2.77248 180.95 1.00276e-07 -8.10182
2578 1 10.7839 50.5812 0.46712 180.95 0 -7.1515
2580 1 12.131 52.4863 2.74946 180.95 2.22928e-07 -8.09137
2425 1 13.4837 51.5197 0.472387 180.95 0 -7.15436
2574 1 14.83 50.5936 2.76641 180.95 4.36534e-08 -8.09474
2601 1 2.69031 53.4181 0.463789 180.95 0 -7.15534
2619 1 -0.00231175 55.3213 0.450999 180.95 0 -7.15731
2786 1 1.33847 54.3801 2.74573 180.95 1.45324e-07 -8.09294
2602 1 5.40059 54.3773 0.445043 180.95 0 -7.15421
2603 1 4.03659 55.3267 2.73408 180.95 2.62937e-07 -8.09592
2433 1 8.08307 55.321 0.434635 180.95 0 -7.14916
2589 1 6.7335 53.4348 2.74633 180.95 5.83201e-08 -8.08924
2590 1 9.43136 54.381 2.74086 180.95 1.74194e-07 -8.10034
2427 1 10.7895 53.4296 0.453642 180.95 0 -7.14911
2429 1 12.1292 55.327 2.7315 180.95 3.52183e-08 -8.0968
2426 1 14.8256 53.4324 2.74622 180.95 4.66556e-08 -8.09451
2428 1 13.4876 54.3758 0.448283 180.95 0 -7.15052
2620 1 2.70332 56.2678 0.438934 180.95 0 -7.15212
2621 1 1.33734 57.2172 2.72197 180.95 7.95852e-08 -8.09928
2641 1 0.00171802 58.1564 0.415761 180.95 0 -7.15261
2443 1 5.39175 57.2164 0.434816 180.95 0 -7.15646
2622 1 4.03632 58.1655 2.71746 180.95 4.20453e-08 -8.09271
2435 1 9.43045 57.218 2.71697 180.95 9.99957e-08 -8.0948
2444 1 8.09484 58.1496 0.412812 180.95 0 -7.15062
2604 1 6.73759 56.2734 2.72852 180.95 5.45886e-08 -8.09394
2434 1 10.783 56.2602 0.427019 180.95 0 -7.15352
2436 1 12.1317 58.1642 2.71243 180.95 7.08899e-09 -8.09394
2281 1 13.4899 57.2069 0.427458 180.95 0 -7.15589
2430 1 14.8281 56.2722 2.72916 180.95 8.51885e-08 -8.0916
2457 1 2.68808 59.0963 0.41566 180.95 0 -7.15304
2475 1 -0.00392465 60.9965 0.398798 180.95 0 -7.15469
2476 1 2.70842 61.9288 0.378764 180.95 0 -7.15135
2642 1 1.33688 60.0557 2.69674 180.95 5.25015e-08 -8.09238
2458 1 5.39834 60.051 0.400325 180.95 0 -7.15162
2459 1 4.03797 60.9986 2.68837 180.95 3.26132e-07 -8.09399
2289 1 8.08478 60.9786 0.406527 180.95 0 -7.15692
2445 1 6.73513 59.1085 2.70376 180.95 1.88771e-07 -8.10306
2446 1 9.43552 60.0551 2.69874 180.95 4.96794e-09 -8.09135
2460 1 6.73423 61.9456 2.6828 180.95 6.98531e-08 -8.0942
2283 1 10.7926 59.1006 0.412571 180.95 0 -7.15426
2285 1 12.1324 60.9994 2.69243 180.95 2.11229e-07 -8.09347
2290 1 10.798 61.9416 0.394578 180.95 0 -7.15533
2282 1 14.8296 59.1093 2.70644 180.95 3.33341e-09 -8.09412
2284 1 13.4982 60.051 0.411959 180.95 0 -7.15534
2286 1 14.8304 61.948 2.68289 180.95 7.77598e-08 -8.09486
2313 1 2.69702 64.7594 0.363657 180.95 0 -7.15415
2477 1 1.34267 62.8887 2.66792 180.95 2.52586e-07 -8.10066
2497 1 0.00784528 63.8322 0.363762 180.95 0 -7.14982
2299 1 5.3931 62.8735 0.373932 180.95 0 -7.15219
2478 1 4.03961 63.8317 2.66267 180.95 5.15048e-08 -8.09674
2291 1 9.4322 62.8883 2.67487 180.95 3.6135e-08 -8.09296
2300 1 8.09927 63.8288 0.377241 180.95 0 -7.15547
2301 1 6.73695 64.7806 2.65485 180.95 5.50126e-08 -8.08913
2139 1 10.785 64.7716 0.361546 180.95 0 -7.15732
2292 1 12.1314 63.8365 2.66405 180.95 9.66481e-08 -8.09705
2137 1 13.4859 62.8866 0.382593 180.95 0 -7.15253
2138 1 14.8323 64.7811 2.65236 180.95 9.20213e-08 -8.09502
2331 1 -0.000722208 66.6579 0.338006 180.95 0 -7.15386
2332 1 2.69926 67.5967 0.329412 180.95 0 -7.15275
2498 1 1.34191 65.7257 2.642 180.95 4.69248e-08 -8.09521
2314 1 5.39553 65.71 0.359472 180.95 0 -7.15744
2315 1 4.03744 66.6688 2.63094 180.95 1.34245e-07 -8.09187
2145 1 8.10167 66.6608 0.338817 180.95 0 -7.15599
2302 1 9.43458 65.727 2.64467 180.95 6.61855e-08 -8.09606
2316 1 6.73824 67.6157 2.61746 180.95 8.44025e-08 -8.09265
2141 1 12.1317 66.6696 2.62912 180.95 9.28203e-08 -8.09619
2146 1 10.7824 67.6146 0.334496 180.95 0 -7.14805
2140 1 13.4948 65.7082 0.349413 180.95 0 -7.1473
2142 1 14.8302 67.6141 2.6247 180.95 1.29554e-07 -8.09202
2169 1 2.69976 70.4524 0.295176 180.95 0 -7.15136
2333 1 1.34037 68.5585 2.60496 180.95 1.3044e-07 -8.09363
2353 1 -0.00981225 69.5023 0.310108 180.95 0 -7.14976
2155 1 5.39933 68.5446 0.322078 180.95 0 -7.15139
2334 1 4.04194 69.5038 2.59129 180.95 6.04078e-08 -8.09386
2147 1 9.43126 68.56 2.61312 180.95 3.73504e-08 -8.09315
2156 1 8.0933 69.5012 0.306298 180.95 0 -7.15916
2157 1 6.73947 70.4506 2.58606 180.95 4.02958e-07 -8.09352
1995 1 10.8004 70.4328 0.301485 180.95 0 -7.14947
2148 1 12.1321 69.5048 2.60304 180.95 1.31477e-07 -8.09361
1993 1 13.4868 68.545 0.331228 180.95 0 -7.16152
1994 1 14.8272 70.4472 2.59264 180.95 2.73055e-07 -8.09453
2187 1 -0.0104068 72.3252 0.282969 180.95 0 -7.15443
2188 1 2.68901 73.2749 0.276981 180.95 0 -7.15459
2189 1 1.34075 74.233 2.54267 180.95 1.24197e-07 -8.09141
2354 1 1.34223 71.3935 2.57654 180.95 8.91673e-08 -8.09694
2011 1 5.40569 74.2229 0.252645 180.95 0 -7.15585
2170 1 5.39982 71.3978 0.293355 180.95 0 -7.15479
2171 1 4.04166 72.3409 2.5639 180.95 2.02975e-07 -8.09109
2001 1 8.09537 72.343 0.275922 180.95 0 -7.15198
2003 1 9.43905 74.2301 2.54439 180.95 6.84915e-08 -8.09623
2158 1 9.43745 71.395 2.57074 180.95 6.73025e-08 -8.09389
2172 1 6.74111 73.2875 2.55554 180.95 2.13131e-07 -8.09586
1997 1 12.1321 72.3417 2.56359 180.95 5.73406e-08 -8.08896
2002 1 10.7918 73.274 0.262584 180.95 0 -7.15734
1849 1 13.499 74.2369 0.26092 180.95 0 -7.15291
1996 1 13.4843 71.3926 0.300838 180.95 0 -7.1595
1998 1 14.8329 73.2856 2.55531 180.95 6.96094e-08 -8.0913
2025 1 2.70234 76.112 0.241183 180.95 0 -7.14898
2209 1 -0.00112422 75.1804 0.242567 180.95 0 -7.15419
2210 1 1.3474 77.07 2.51121 180.95 2.07796e-07 -8.09625
2026 1 5.39626 77.0611 0.233152 180.95 0 -7.15629
2190 1 4.04292 75.1739 2.53035 180.95 7.72821e-08 -8.09392
2012 1 8.09737 75.1795 0.261827 180.95 0 -7.15396
2013 1 6.73716 76.1245 2.52404 180.95 2.30954e-08 -8.09037
2014 1 9.4376 77.0728 2.51267 180.95 1.26003e-07 -8.096
1851 1 10.7822 76.1121 0.245555 180.95 0 -7.15137
2004 1 12.1346 75.1748 2.52977 180.95 1.19285e-07 -8.08773
1850 1 14.8333 76.1251 2.52375 180.95 1.42093e-07 -8.09909
1852 1 13.4907 77.0614 0.228192 180.95 0 -7.15618
2043 1 -0.00983722 78.0079 0.222527 180.95 0 -7.15011
2044 1 2.69998 78.9543 0.227766 180.95 0 -7.15251
2045 1 1.34251 79.9117 2.48372 180.95 2.07015e-08 -8.0919
1867 1 5.38596 79.914 0.212796 180.95 0 -7.15628
2027 1 4.04607 78.0157 2.50361 180.95 3.22912e-07 -8.09086
1857 1 8.08414 78.0175 0.226805 180.95 0 -7.15276
1859 1 9.43767 79.9145 2.48369 180.95 1.75953e-07 -8.09329
2028 1 6.73737 78.966 2.49294 180.95 1.99318e-07 -8.0886
1853 1 12.1366 78.0154 2.50155 180.95 1.28836e-07 -8.09358
1858 1 10.7948 78.9593 0.221762 180.95 0 -7.15236
1705 1 13.4845 79.9145 0.219963 180.95 0 -7.1568
1854 1 14.8336 78.9637 2.49046 180.95 1.20499e-07 -8.08698
1881 1 2.69236 81.8059 0.206918 180.95 0 -7.15862
1899 1 -0.000859415 83.7109 0.193335 180.95 0 -7.15941
2065 1 -0.00481508 80.8695 0.199926 180.95 0 -7.14784
2066 1 1.34451 82.7621 2.46902 180.95 7.80978e-08 -8.09228
1882 1 5.39859 82.7581 0.205283 180.95 0 -7.15797
1883 1 4.04412 83.7089 2.46593 180.95 5.4468e-08 -8.0871
2046 1 4.04251 80.8615 2.48145 180.95 5.54747e-08 -8.09186
1713 1 8.10113 83.7159 0.189054 180.95 0 -7.15252
1868 1 8.09137 80.8691 0.201431 180.95 0 -7.15339
1869 1 6.74265 81.8107 2.47362 180.95 1.65765e-07 -8.08682
1870 1 9.43979 82.7602 2.4659 180.95 2.21335e-07 -8.08884
1707 1 10.7897 81.8145 0.206509 180.95 0 -7.15707
1709 1 12.1368 83.7086 2.46137 180.95 1.23583e-07 -8.09663
1860 1 12.1352 80.8628 2.48221 180.95 3.39272e-07 -8.08831
1706 1 14.8307 81.8124 2.46866 180.95 2.87132e-07 -8.09556
1708 1 13.4779 82.7621 0.188426 180.95 0 -7.1508
1900 1 2.7042 84.6644 0.198572 180.95 0 -7.15433
1901 1 1.3494 85.6095 2.45541 180.95 2.70435e-08 -8.09258
1921 1 0.00350314 86.5617 0.177696 180.95 0 -7.1509
1723 1 5.40052 85.6027 0.184563 180.95 0 -7.1509
1902 1 4.05104 86.5547 2.4603 180.95 1.12369e-07 -8.09578
1715 1 9.44436 85.6075 2.45685 180.95 3.57316e-08 -8.09379
1724 1 8.08382 86.5453 0.189443 180.95 0 -7.15524
1884 1 6.74485 84.6566 2.45971 180.95 7.47357e-08 -8.09854
1714 1 10.7832 84.6563 0.18065 180.95 0 -7.15438
1716 1 12.1418 86.5544 2.45393 180.95 9.84051e-08 -8.09023
1561 1 13.4958 85.596 0.187356 180.95 0 -7.15754
1710 1 14.8368 84.6583 2.45876 180.95 4.18815e-08 -8.08652
1737 1 2.70774 87.5134 0.19687 180.95 0 -7.15196
1755 1 0.000715454 89.4103 0.199108 180.95 0 -7.15401
1922 1 1.35121 88.4554 2.45993 180.95 3.41039e-08 -8.08412
1738 1 5.38892 88.4489 0.190959 180.95 0 -7.15435
1739 1 4.05115 89.4054 2.46403 180.95 2.62041e-07 -8.09422
1569 1 8.09661 89.4056 0.184675 180.95 0 -7.15344
1725 1 6.74686 87.5069 2.45581 180.95 9.66937e-08 -8.0876
1726 1 9.44071 88.4533 2.45602 180.95 2.72352e-08 -8.0905
1563 1 10.7997 87.5054 0.192396 180.95 0 -7.15141
1565 1 12.1427 89.4047 2.46475 180.95 3.75755e-07 -8.08816
1562 1 14.8403 87.5042 2.45356 180.95 2.41319e-08 -8.09218
1564 1 13.4871 88.4598 0.196216 180.95 0 -7.15749
1756 1 2.70468 90.3622 0.192356 180.95 0 -7.15268
1757 1 1.35287 91.3013 2.47446 180.95 1.6863e-07 -8.09266
1777 1 -0.000140971 92.2536 0.213316 180.95 0 -7.15273
1579 1 5.40586 91.3032 0.201167 180.95 0 -7.15456
1758 1 4.0528 92.2512 2.47864 180.95 4.61913e-07 -8.09187
1571 1 9.44645 91.299 2.47291 180.95 4.07244e-07 -8.09004
1580 1 8.09833 92.2424 0.200709 180.95 0 -7.15548
1740 1 6.74634 90.3528 2.46316 180.95 8.4685e-08 -8.09
1570 1 10.7899 90.3491 0.200408 180.95 0 -7.15857
1572 1 12.143 92.2505 2.47535 180.95 1.19658e-07 -8.09009
1417 1 13.491 91.3094 0.190153 180.95 0 -7.15573
1566 1 14.8356 90.3548 2.46395 180.95 4.50403e-08 -8.0936
1593 1 2.70023 93.1929 0.208014 180.95 0 -7.15499
1611 1 0.00848892 95.0863 0.230434 180.95 0 -7.15521
1612 1 2.6925 96.0385 0.23149 180.95 0 -7.15242
1778 1 1.35111 94.1419 2.49446 180.95 1.65072e-07 -8.0939
1594 1 5.4043 94.1464 0.214156 180.95 0 -7.14932
1595 1 4.05165 95.0898 2.49885 180.95 9.41042e-08 -8.09181
1425 1 8.08922 95.0991 0.236623 180.95 0 -7.15626
1581 1 6.75052 93.1976 2.48541 180.95 2.24626e-07 -8.0959
1582 1 9.44893 94.1447 2.49209 180.95 2.23649e-08 -8.08991
1596 1 6.7489 96.0372 2.51768 180.95 1.44349e-07 -8.08772
1419 1 10.7947 93.1931 0.207662 180.95 0 -7.15374
1421 1 12.141 95.0891 2.50063 180.95 3.64855e-07 -8.09616
1426 1 10.7818 96.0493 0.224815 180.95 0 -7.15752
1418 1 14.8355 93.1975 2.48581 180.95 1.38398e-07 -8.09118
1420 1 13.4869 94.1578 0.210515 180.95 0 -7.14979
1422 1 14.842 96.0361 2.51451 180.95 1.10684e-08 -8.08836
1449 1 2.68907 98.8871 0.270943 180.95 0 -7.15674
1613 1 1.35072 96.9816 2.51913 180.95 2.5739e-08 -8.0954
1633 1 0.00199058 97.9406 0.243511 180.95 0 -7.15183
1435 1 5.40489 96.988 0.242088 180.95 0 -7.154
1614 1 4.05047 97.9269 2.53215 180.95 5.47873e-08 -8.09601
1427 1 9.44779 96.9862 2.52334 180.95 2.69362e-07 -8.09506
1436 1 8.09069 97.9356 0.247153 180.95 0 -7.15277
1437 1 6.75061 98.8759 2.54519 180.95 7.0025e-08 -8.09496
1275 1 10.7972 98.8939 0.26585 180.95 0 -7.15133
1428 1 12.1415 97.9286 2.53483 180.95 5.55404e-08 -8.0903
1273 1 13.4923 96.9858 0.250415 180.95 0 -7.15093
1274 1 14.8434 98.8732 2.54654 180.95 1.24841e-07 -8.09544
1467 1 0.00944575 100.767 0.275128 180.95 0 -7.15389
1468 1 2.68766 101.734 0.292763 180.95 0 -7.15564
1634 1 1.35454 99.82 2.55941 180.95 2.44881e-07 -8.08971
1450 1 5.38476 99.8274 0.28285 180.95 0 -7.15388
1451 1 4.05233 100.768 2.56981 180.95 2.76996e-08 -8.09542
1281 1 8.08366 100.769 0.274352 180.95 0 -7.14918
1438 1 9.44615 99.8247 2.55311 180.95 8.30895e-08 -8.09393
1452 1 6.7524 101.713 2.57347 180.95 5.74435e-08 -8.09512
1277 1 12.1487 100.767 2.57095 180.95 2.93496e-07 -8.09499
1282 1 10.7963 101.73 0.300325 180.95 0 -7.15683
1276 1 13.4851 99.8212 0.273315 180.95 0 -7.1545
1278 1 14.8477 101.71 2.57705 180.95 1.27235e-07 -8.09467
1305 1 2.70145 104.555 0.323277 180.95 0 -7.15355
1469 1 1.35604 102.657 2.59468 180.95 4.33319e-07 -8.09061
1489 1 0.0066912 103.605 0.311791 180.95 0 -7.15498
1291 1 5.38626 102.68 0.304768 180.95 0 -7.15744
1470 1 4.05663 103.604 2.60576 180.95 7.54859e-08 -8.0918
1283 1 9.44518 102.658 2.59051 180.95 1.23417e-07 -8.08963
1292 1 8.0967 103.61 0.308807 180.95 0 -7.15584
1293 1 6.75689 104.55 2.61146 180.95 2.6686e-07 -8.0955
1131 1 10.7821 104.551 0.31396 180.95 0 -7.14911
1284 1 12.1464 103.604 2.60151 180.95 8.03821e-08 -8.0993
1129 1 13.4941 102.667 0.302328 180.95 0 -7.15151
1130 1 14.844 104.547 2.61254 180.95 9.43173e-08 -8.09903
1323 1 -0.00549742 106.449 0.350643 180.95 0 -7.15287
1324 1 2.7069 107.386 0.358097 180.95 0 -7.15511
1325 1 1.35706 108.325 2.65589 180.95 1.05975e-07 -8.09602
1490 1 1.35814 105.492 2.62512 180.95 2.47468e-07 -8.0948
1147 1 5.38793 108.349 0.363281 180.95 0 -7.15202
1306 1 5.40195 105.512 0.342392 180.95 0 -7.15794
1307 1 4.05821 106.437 2.63805 180.95 2.24178e-07 -8.0891
1137 1 8.1031 106.46 0.345137 180.95 0 -7.15309
1139 1 9.45358 108.332 2.64972 180.95 5.32243e-07 -8.09939
1294 1 9.44969 105.495 2.61967 180.95 2.46381e-07 -8.09078
1308 1 6.75296 107.387 2.64269 180.95 6.11919e-08 -8.09769
1133 1 12.1446 106.439 2.63543 180.95 1.94105e-07 -8.08677
1138 1 10.8004 107.398 0.347675 180.95 0 -7.15601
985 1 13.4807 108.342 0.357732 180.95 0 -7.14782
1132 1 13.4796 105.516 0.343202 180.95 0 -7.1557
1134 1 14.842 107.382 2.64424 180.95 1.67742e-07 -8.09806
1161 1 2.69677 110.23 0.386594 180.95 0 -7.15248
1345 1 -0.00355353 109.278 0.377866 180.95 0 -7.15723
1346 1 1.35661 111.164 2.67794 180.95 3.96632e-08 -8.09397
1162 1 5.38496 111.18 0.39199 180.95 0 -7.15612
1326 1 4.05298 109.274 2.66622 180.95 7.38946e-08 -8.09439
1148 1 8.09217 109.291 0.367721 180.95 0 -7.14807
1149 1 6.75295 110.22 2.67093 180.95 1.36072e-07 -8.09671
1150 1 9.45042 111.167 2.6822 180.95 4.29509e-07 -8.09213
987 1 10.7892 110.239 0.384171 180.95 0 -7.15624
1140 1 12.1487 109.272 2.66409 180.95 2.56122e-07 -8.09384
986 1 14.8454 110.217 2.67543 180.95 2.00363e-07 -8.09229
988 1 13.4992 111.168 0.387692 180.95 0 -7.15338
1179 1 -0.00764229 112.132 0.40012 180.95 0 -7.15223
1180 1 2.70774 113.057 0.395265 180.95 0 -7.15709
1181 1 1.36229 114.001 2.69862 180.95 4.54196e-07 -8.09837
1003 1 5.38575 114.003 0.405851 180.95 0 -7.15287
1163 1 4.05412 112.111 2.69175 180.95 1.10393e-07 -8.09395
993 1 8.08934 112.13 0.406192 180.95 0 -7.15517
995 1 9.45452 114 2.70716 180.95 6.59449e-08 -8.09416
1164 1 6.74921 113.058 2.69833 180.95 4.90783e-08 -8.0954
989 1 12.1522 112.109 2.68533 180.95 6.07336e-08 -8.0967
994 1 10.7904 113.063 0.405309 180.95 0 -7.15257
841 1 13.4857 114.019 0.403969 180.95 0 -7.16024
990 1 14.847 113.056 2.69402 180.95 7.05339e-08 -8.0924
1017 1 2.69531 115.911 0.425722 180.95 0 -7.15168
1035 1 -0.00703976 117.804 0.438417 180.95 0 -7.15068
1201 1 0.0105971 114.962 0.416396 180.95 0 -7.15124
1202 1 1.35425 116.836 2.72697 180.95 2.70107e-07 -8.09812
1018 1 5.39234 116.856 0.43616 180.95 0 -7.15079
1019 1 4.05309 117.781 2.73702 180.95 3.87694e-08 -8.09315
1182 1 4.05485 114.944 2.70866 180.95 4.51827e-08 -8.09364
849 1 8.08292 117.804 0.433572 180.95 0 -7.14632
1004 1 8.10303 114.95 0.422402 180.95 0 -7.1539
1005 1 6.75113 115.888 2.71546 180.95 7.26221e-08 -8.0891
1006 1 9.44806 116.837 2.72031 180.95 4.96819e-08 -8.09949
843 1 10.7999 115.903 0.421907 180.95 0 -7.15194
845 1 12.1457 117.784 2.73079 180.95 4.80541e-08 -8.09607
996 1 12.1504 114.944 2.71064 180.95 1.09205e-07 -8.09416
842 1 14.8496 115.889 2.71793 180.95 2.47804e-07 -8.09031
844 1 13.4979 116.849 0.437645 180.95 0 -7.14673
1036 1 2.69342 118.737 0.459475 180.95 0 -7.15688
1037 1 1.35596 119.676 2.7512 180.95 1.86722e-08 -8.09573
1057 1 0.00617016 120.625 0.458609 180.95 0 -7.1529
859 1 5.3864 119.684 0.455182 180.95 0 -7.15827
1038 1 4.05707 120.623 2.75542 180.95 5.91766e-08 -8.09217
851 1 9.44592 119.678 2.74766 180.95 1.02275e-07 -8.09019
860 1 8.08306 120.625 0.461868 180.95 0 -7.15641
1020 1 6.74962 118.725 2.74102 180.95 2.0036e-08 -8.10016
850 1 10.7812 118.752 0.454293 180.95 0 -7.15329
852 1 12.1439 120.624 2.75426 180.95 8.21372e-08 -8.09634
697 1 13.4868 119.69 0.463444 180.95 0 -7.15813
846 1 14.844 118.729 2.74264 180.95 1.7152e-08 -8.0944
873 1 2.70536 121.571 0.47015 180.95 0 -7.15745
891 1 0.00854779 123.469 0.485789 180.95 0 -7.14942
1058 1 1.35918 122.514 2.76398 180.95 8.14262e-09 -8.09102
874 1 5.39889 122.53 0.465378 180.95 0 -7.15447
875 1 4.05877 123.461 2.76717 180.95 2.18812e-07 -8.09243
705 1 8.09364 123.484 0.489504 180.95 0 -7.15987
861 1 6.74924 121.57 2.75919 180.95 3.67514e-07 -8.09804
862 1 9.45044 122.517 2.76615 180.95 2.49768e-07 -8.09396
699 1 10.7914 121.59 0.465307 180.95 0 -7.15207
701 1 12.1517 123.462 2.77179 180.95 1.31691e-07 -8.09252
698 1 14.8467 121.566 2.75737 180.95 2.5431e-07 -8.101
700 1 13.4939 122.524 0.474174 180.95 0 -7.15054
892 1 2.70819 124.417 0.489442 180.95 0 -7.15349
893 1 1.35796 125.357 2.77896 180.95 1.99005e-07 -8.09598
913 1 -0.00990432 126.316 0.500845 180.95 0 -7.15022
715 1 5.40577 125.368 0.487092 180.95 0 -7.15167
894 1 4.05585 126.303 2.78178 180.95 1.24905e-07 -8.0954
707 1 9.44823 125.36 2.7869 180.95 1.37794e-07 -8.09509
716 1 8.08675 126.326 0.502549 180.95 0 -7.15052
876 1 6.7497 124.409 2.7807 180.95 1.39665e-07 -8.09149
706 1 10.7978 124.431 0.496459 180.95 0 -7.14871
708 1 12.1477 126.308 2.78718 180.95 1.93677e-07 -8.10189
553 1 13.4796 125.372 0.482741 180.95 0 -7.14437
702 1 14.8427 124.412 2.77321 180.95 1.65368e-07 -8.09876
729 1 2.69913 127.27 0.502145 180.95 0 -7.152
747 1 0.00271714 129.166 0.51553 180.95 0 -7.15567
748 1 2.70436 130.115 0.525262 180.95 0 -7.15116
914 1 1.35556 128.2 2.79661 180.95 1.3226e-07 -8.09385
730 1 5.40253 128.217 0.498359 180.95 0 -7.15701
731 1 4.05621 129.148 2.80289 180.95 2.08747e-07 -8.0961
561 1 8.1029 129.164 0.523005 180.95 0 -7.15171
717 1 6.74946 127.255 2.79612 180.95 5.2792e-08 -8.09577
718 1 9.44961 128.2 2.80481 180.95 1.21395e-08 -8.09101
732 1 6.74862 130.096 2.80755 180.95 2.28899e-07 -8.09557
555 1 10.7811 127.269 0.50441 180.95 0 -7.15663
557 1 12.1433 129.148 2.80538 180.95 5.16914e-08 -8.0893
562 1 10.79 130.111 0.517694 180.95 0 -7.15249
554 1 14.8434 127.252 2.79147 180.95 2.73792e-07 -8.08887
556 1 13.4833 128.218 0.516147 180.95 0 -7.15697
558 1 14.8415 130.098 2.80817 180.95 1.2407e-07 -8.09916
585 1 2.68849 132.954 0.538891 180.95 0 -7.15114