ITEM: TIMESTEP
254
ITEM: NUMBER OF ATOMS
8214
ITEM: BOX BOUNDS pp ff ff
0.0000000000000000e+00 1.6186228220311300e+01
0.0000000000000000e+00 1.7368087604622701e+02
0.0000000000000000e+00 7.0088424151210802e+01
ITEM: ATOMS id type x y z mass c_KE c_PE
3885 1 2.6977 2.1549 0.638693 180.95 0.00039551 -6.31186
4037 1 0 1.20341 0.640411 180.95 0.000129077 -5.46312
4018 1 4.04656 1.22224 2.98048 180.95 4.38013e-05 -6.25075
3872 1 8.09311 1.20341 0.640411 180.95 0.000103356 -5.46289
3873 1 6.74327 2.18337 2.90176 180.95 7.89666e-05 -7.19466
3722 1 10.7908 2.1549 0.638693 180.95 0.000297286 -6.31274
3865 1 12.1397 1.22224 2.98048 180.95 0.000306249 -6.24984
3721 1 14.8327 2.16601 2.89959 180.95 0.000159381 -7.19104
3903 1 0 4.05775 0.635169 180.95 0.000264032 -7.16851
3904 1 2.6977 5.00911 0.633363 180.95 0.000231597 -7.12355
3905 1 1.34657 5.90827 2.92775 180.95 0.000147752 -8.11049
4038 1 1.34176 2.93989 2.91398 180.95 4.2653e-05 -7.85213
3738 1 5.39541 5.96042 0.631525 180.95 0.000449959 -7.13944
3886 1 5.39541 3.10635 0.636946 180.95 0.000321207 -6.82945
3887 1 4.03498 3.99747 2.92779 180.95 0.000403394 -8.11395
3728 1 8.09311 4.05775 0.635169 180.95 0.0002362 -7.17008
3730 1 9.43608 5.90686 2.93313 180.95 0.000333209 -8.11187
3874 1 9.432 2.94358 2.90928 180.95 0.000308791 -7.85004
3888 1 6.73445 4.98098 2.92882 180.95 0.00036633 -8.05016
3724 1 12.1247 3.99462 2.92811 180.95 0.000256611 -8.11235
3729 1 10.7908 5.00911 0.633363 180.95 0.000280706 -7.12536
3577 1 13.4885 5.96042 0.631525 180.95 0.000197046 -7.13855
3723 1 13.4885 3.10635 0.636946 180.95 0.000292759 -6.82911
3725 1 14.8269 4.98316 2.92981 180.95 0.000145236 -8.05704
3752 1 2.6977 7.86288 0.627752 180.95 0.000177616 -7.14041
3925 1 0 6.91168 0.629655 180.95 0.000289491 -7.14643
3926 1 1.34589 8.805 2.92515 180.95 0.000219195 -8.10483
3753 1 5.39541 8.81404 0.625814 180.95 0.000233392 -7.14607
3906 1 4.04195 6.89691 2.92784 180.95 0.000118489 -8.10884
3739 1 8.09311 6.91168 0.629655 180.95 0.000281018 -7.14711
3740 1 6.74243 7.85225 2.92831 180.95 0.000445889 -8.09018
3741 1 9.43784 8.80219 2.92491 180.95 5.0425e-05 -8.1048
3579 1 10.7908 7.86288 0.627752 180.95 0.000213756 -7.13813
3731 1 12.1326 6.89568 2.93119 180.95 0.000420227 -8.11106
3578 1 14.8331 7.85762 2.92624 180.95 0.000293691 -8.09097
3580 1 13.4885 8.81404 0.625814 180.95 0.000145454 -7.14433
3770 1 0 9.76515 0.623841 180.95 8.09256e-05 -7.14726
3771 1 2.6977 10.7162 0.621831 180.95 0.000141585 -7.14478
3772 1 1.34692 11.6717 2.91837 180.95 0.000218728 -8.10009
3595 1 5.39541 11.6672 0.619783 180.95 5.61528e-05 -7.1449
3754 1 4.04026 9.76397 2.9252 180.95 0.000129921 -8.09963
3585 1 8.09311 9.76515 0.623841 180.95 0.000294989 -7.14598
3587 1 9.44116 11.6727 2.91855 180.95 0.000247338 -8.09814
3755 1 6.74297 10.7192 2.9215 180.95 0.000292328 -8.09961
3581 1 12.1383 9.76404 2.92513 180.95 0.000249387 -8.10304
3586 1 10.7908 10.7162 0.621831 180.95 0.00021291 -7.14485
3433 1 13.4885 11.6672 0.619783 180.95 0.000468433 -7.14669
3582 1 14.8357 10.7192 2.92121 180.95 0.000143703 -8.09539
3609 1 2.6977 13.569 0.615569 180.95 0.000334607 -7.14701
3627 1 0 15.4706 0.611186 180.95 0.000311462 -7.14871
3792 1 0 12.6181 0.617696 180.95 0.000251734 -7.14697
3793 1 1.34568 14.5324 2.91405 180.95 0.000149278 -8.09847
3610 1 5.39541 14.5198 0.613399 180.95 0.000124998 -7.1484
3611 1 4.04654 15.4838 2.91362 180.95 0.000287921 -8.0971
3773 1 4.04693 12.6282 2.91854 180.95 0.000223846 -8.09888
3441 1 8.09311 15.4706 0.611186 180.95 4.46099e-06 -7.1491
3596 1 8.09311 12.6181 0.617696 180.95 0.000305035 -7.14773
3597 1 6.74278 13.5836 2.91714 180.95 0.000252836 -8.09635
3598 1 9.43722 14.5319 2.91368 180.95 0.00039052 -8.09948
3435 1 10.7908 13.569 0.615569 180.95 0.000214986 -7.1471
3437 1 12.1385 15.4847 2.91258 180.95 0.000451065 -8.09595
3588 1 12.1373 12.6307 2.91616 180.95 0.000133673 -8.09814
3434 1 14.8364 13.5793 2.91416 180.95 0.000337397 -8.09609
3436 1 13.4885 14.5198 0.613399 180.95 0.000188259 -7.14848
3628 1 2.6977 16.4213 0.608928 180.95 9.32551e-05 -7.14835
3629 1 1.34597 17.3861 2.90704 180.95 0.000129102 -8.09811
3649 1 0 18.3224 0.604271 180.95 0.000241599 -7.14714
3451 1 5.39541 17.3719 0.606624 180.95 0.000236059 -7.14884
3630 1 4.04437 18.3368 2.90517 180.95 0.000226296 -8.09697
3443 1 9.43625 17.386 2.90524 180.95 0.000317259 -8.09502
3452 1 8.09311 18.3224 0.604271 180.95 0.000445979 -7.14845
3612 1 6.74161 16.4333 2.91019 180.95 0.000299385 -8.09665
3442 1 10.7908 16.4213 0.608928 180.95 0.000195383 -7.1478
3444 1 12.1377 18.3383 2.90466 180.95 0.000278505 -8.099
3289 1 13.4885 17.3719 0.606624 180.95 0.000486276 -7.14844
3438 1 14.8339 16.4333 2.9125 180.95 0.00024972 -8.09783
3465 1 2.6977 19.2729 0.601868 180.95 2.20613e-05 -7.14836
3483 1 0 21.1737 0.596904 180.95 0.000166882 -7.14891
3650 1 1.34441 20.241 2.90019 180.95 0.000179267 -8.09632
3466 1 5.39541 20.2233 0.599413 180.95 0.000228799 -7.14855
3467 1 4.04278 21.192 2.8975 180.95 0.000288176 -8.09678
3297 1 8.09311 21.1737 0.596904 180.95 0.000108556 -7.1484
3453 1 6.74041 19.2861 2.90204 180.95 0.000414126 -8.09678
3454 1 9.4392 20.2355 2.89827 180.95 0.000236439 -8.09782
3291 1 10.7908 19.2729 0.601868 180.95 0.00023241 -7.14879
3293 1 12.1374 21.1878 2.89548 180.95 5.98518e-05 -8.09697
3290 1 14.8356 19.2894 2.9022 180.95 0.000518117 -8.09716
3292 1 13.4885 20.2233 0.599413 180.95 0.000142079 -7.14868
3484 1 2.6977 22.1239 0.59434 180.95 0.000152609 -7.14864
3485 1 1.34565 23.0906 2.89182 180.95 0.000351643 -8.09764
3505 1 0 24.0242 0.589034 180.95 0.000193412 -7.14834
3307 1 5.39541 23.0741 0.591717 180.95 0.000409936 -7.14913
3486 1 4.04372 24.0416 2.88894 180.95 0.000117075 -8.09736
3299 1 9.4408 23.0926 2.88908 180.95 0.000361343 -8.0974
3308 1 8.09311 24.0242 0.589034 180.95 0.000260883 -7.1469
3468 1 6.7397 22.1397 2.89602 180.95 0.000267815 -8.09854
3298 1 10.7908 22.1239 0.59434 180.95 0.000113832 -7.14802
3300 1 12.1394 24.0413 2.88807 180.95 0.000164102 -8.09625
3145 1 13.4885 23.0741 0.591717 180.95 0.000186011 -7.14828
3294 1 14.8348 22.1391 2.89493 180.95 9.95119e-06 -8.09742
3321 1 2.6977 24.9742 0.586288 180.95 0.000428406 -7.14867
3339 1 0 26.874 0.580599 180.95 0.000368628 -7.1502
3340 1 2.6977 27.8238 0.577651 180.95 0.00057998 -7.14922
3506 1 1.34731 25.9423 2.88373 180.95 0.00023661 -8.09778
3322 1 5.39541 25.9242 0.583478 180.95 0.00012525 -7.14909
3323 1 4.04611 26.8932 2.87874 180.95 0.000357644 -8.09664
3153 1 8.09311 26.874 0.580599 180.95 0.00033862 -7.14904
3309 1 6.7408 24.9933 2.88485 180.95 0.000296424 -8.09685
3310 1 9.44235 25.9462 2.8834 180.95 0.000108674 -8.09714
3324 1 6.73811 27.8407 2.87832 180.95 0.000260783 -8.09514
3147 1 10.7908 24.9742 0.586288 180.95 0.000415532 -7.14889
3149 1 12.1389 26.8927 2.88405 180.95 0.000283852 -8.09682
3154 1 10.7908 27.8238 0.577651 180.95 0.000220963 -7.15075
3146 1 14.8361 24.9928 2.88686 180.95 8.82419e-05 -8.0975
3148 1 13.4885 25.9242 0.583478 180.95 0.00034676 -7.14948
3150 1 14.8336 27.8425 2.87944 180.95 0.000247002 -8.09669
3177 1 2.6977 30.6725 0.568353 180.95 0.000155636 -7.14928
3341 1 1.34685 28.7898 2.87288 180.95 0.000249178 -8.09558
3361 1 0 29.723 0.571531 180.95 0.000336422 -7.14856
3163 1 5.39541 28.7734 0.574629 180.95 0.000165349 -7.15127
3342 1 4.04339 29.7406 2.87152 180.95 7.62589e-06 -8.09483
3155 1 9.43997 28.7919 2.87756 180.95 0.000412576 -8.09627
3164 1 8.09311 29.723 0.571531 180.95 0.00018996 -7.14955
3165 1 6.73698 30.6878 2.86739 180.95 0.000223241 -8.09749
3003 1 10.7908 30.6725 0.568353 180.95 6.27288e-05 -7.14962
3156 1 12.1359 29.7404 2.87342 180.95 0.00022774 -8.09693
3001 1 13.4885 28.7734 0.574629 180.95 0.000315692 -7.14976
3002 1 14.8351 30.6898 2.86612 180.95 0.000124181 -8.09382
3195 1 0 32.5711 0.561747 180.95 8.83672e-05 -7.14913
3196 1 2.6977 33.5203 0.558311 180.95 0.000275279 -7.14897
3362 1 1.34403 31.6413 2.86648 180.95 0.000284499 -8.09878
3178 1 5.39541 31.6218 0.565093 180.95 0.000408283 -7.14959
3179 1 4.0437 32.5901 2.86414 180.95 0.000175451 -8.09794
3009 1 8.09311 32.5711 0.561747 180.95 0.000193926 -7.14803
3166 1 9.43886 31.6394 2.86321 180.95 9.23106e-05 -8.09646
3180 1 6.74217 33.5394 2.85662 180.95 0.000282758 -8.09737
3005 1 12.1347 32.5881 2.86138 180.95 0.00037011 -8.0962
3010 1 10.7908 33.5203 0.558311 180.95 6.84524e-05 -7.14994
3004 1 13.4885 31.6218 0.565093 180.95 0.000477512 -7.1489
3006 1 14.8343 33.5372 2.85956 180.95 0.000217074 -8.09906
3033 1 2.6977 36.3671 0.547428 180.95 0.000374062 -7.14937
3197 1 1.34636 34.4888 2.85851 180.95 0.000293954 -8.09741
3217 1 0 35.4183 0.551156 180.95 7.33724e-05 -7.14978
3019 1 5.39541 34.4693 0.554782 180.95 0.00025109 -7.1488
3198 1 4.04398 35.4395 2.85329 180.95 0.000257439 -8.09815
3011 1 9.44069 34.4884 2.85593 180.95 9.13828e-05 -8.09774
3020 1 8.09311 35.4183 0.551156 180.95 0.000242168 -7.15014
3021 1 6.74352 36.3869 2.84898 180.95 2.64407e-05 -8.09701
2859 1 10.7908 36.3671 0.547428 180.95 5.37736e-05 -7.14927
3012 1 12.1362 35.4357 2.8521 180.95 0.000413864 -8.09673
2857 1 13.4885 34.4693 0.554782 180.95 0.000246137 -7.14947
2858 1 14.8349 36.385 2.84877 180.95 0.000215747 -8.0977
3051 1 0 38.2644 0.539651 180.95 0.000233222 -7.14909
3052 1 2.6977 39.2128 0.535593 180.95 0.000389993 -7.14929
3053 1 1.34563 40.1817 2.83203 180.95 0.000224766 -8.09498
3218 1 1.34517 37.3341 2.84435 180.95 0.000257588 -8.09854
2875 1 5.39541 40.1611 0.531414 180.95 0.000296781 -7.14976
3034 1 5.39541 37.3158 0.543595 180.95 0.000347595 -7.15024
3035 1 4.04342 38.2833 2.84085 180.95 0.000253926 -8.09602
2865 1 8.09311 38.2644 0.539651 180.95 0.000265441 -7.15049
2867 1 9.43702 40.1793 2.83174 180.95 0.00021775 -8.09479
3022 1 9.43981 37.336 2.8443 180.95 0.000106738 -8.09482
3036 1 6.74226 39.2341 2.83366 180.95 0.000199771 -8.09528
2861 1 12.1396 38.2832 2.84247 180.95 0.000409796 -8.09913
2866 1 10.7908 39.2128 0.535593 180.95 0.000250773 -7.15068
2713 1 13.4885 40.1611 0.531414 180.95 0.000157488 -7.15031
2860 1 13.4885 37.3158 0.543595 180.95 0.000214847 -7.14993
2862 1 14.8378 39.2322 2.83268 180.95 0.000274136 -8.0959
2889 1 2.6977 42.0574 0.522676 180.95 0.000386882 -7.15016
3073 1 0 41.1093 0.52711 180.95 0.000380978 -7.15124
3074 1 1.34539 43.0249 2.81951 180.95 0.000152623 -8.09793
2890 1 5.39541 43.0053 0.518106 180.95 0.000244813 -7.15088
3054 1 4.04467 41.1308 2.82831 180.95 0.000194798 -8.095
2876 1 8.09311 41.1093 0.52711 180.95 0.000245655 -7.15107
2877 1 6.74034 42.0782 2.82297 180.95 0.000380585 -8.09512
2878 1 9.436 43.0266 2.81947 180.95 0.000268326 -8.09688
2715 1 10.7908 42.0574 0.522676 180.95 0.000389545 -7.14985
2868 1 12.1355 41.1308 2.82667 180.95 0.000212974 -8.09462
2714 1 14.8331 42.074 2.82448 180.95 0.000298917 -8.09637
2716 1 13.4885 43.0053 0.518106 180.95 0.000403909 -7.15059
2907 1 0 43.9531 0.513395 180.95 0.000251666 -7.14963
2908 1 2.6977 44.9008 0.508535 180.95 0.000257074 -7.15025
2909 1 1.34595 45.8669 2.80621 180.95 0.000165295 -8.09553
2731 1 5.39541 45.8483 0.503522 180.95 0.000331673 -7.15064
2891 1 4.0444 43.9729 2.81581 180.95 0.000137541 -8.09611
2721 1 8.09311 43.9531 0.513395 180.95 0.000471782 -7.15024
2723 1 9.43882 45.8697 2.80491 180.95 0.000117726 -8.09836
2892 1 6.73986 44.9197 2.80998 180.95 0.000373398 -8.09627
2717 1 12.1361 43.9725 2.81547 180.95 0.00017755 -8.09687
2722 1 10.7908 44.9008 0.508535 180.95 0.000307311 -7.14966
2569 1 13.4885 45.8483 0.503522 180.95 0.000579244 -7.15041
2718 1 14.8354 44.9208 2.81108 180.95 0.000141962 -8.09829
2745 1 2.6977 47.7429 0.493009 180.95 0.000144799 -7.15028
2929 1 0 46.7957 0.498349 180.95 0.000198769 -7.15124
2930 1 1.3455 48.7085 2.78803 180.95 0.000271414 -8.09729
2746 1 5.39541 48.69 0.487496 180.95 0.00012696 -7.15017
2910 1 4.04453 46.8154 2.80113 180.95 0.000344601 -8.09658
2732 1 8.09311 46.7957 0.498349 180.95 0.000323758 -7.14899
2733 1 6.74218 47.7613 2.79425 180.95 0.000354372 -8.09595
2734 1 9.44009 48.7117 2.79253 180.95 0.000226881 -8.097
2571 1 10.7908 47.7429 0.493009 180.95 0.000335137 -7.15033
2724 1 12.1393 46.8159 2.80214 180.95 0.00021571 -8.09787
2570 1 14.8343 47.7625 2.79546 180.95 0.000113558 -8.09496
2572 1 13.4885 48.69 0.487496 180.95 0.000165065 -7.15105
2763 1 0 49.6369 0.481802 180.95 0.000349252 -7.15013
2764 1 2.6977 50.5837 0.475922 180.95 0.000379907 -7.15073
2765 1 1.34635 51.5519 2.77275 180.95 0.000148175 -8.09532
2785 1 0 52.4768 0.463575 180.95 0.000117364 -7.1514
2587 1 5.39541 51.5303 0.469849 180.95 0.000149907 -7.15127
2747 1 4.04398 49.6582 2.78224 180.95 0.000166764 -8.09655
2766 1 4.04357 52.4996 2.76411 180.95 0.000222279 -8.0949
2577 1 8.09311 49.6369 0.481802 180.95 0.00020663 -7.1503
2579 1 9.44059 51.5533 2.77284 180.95 0.000329364 -8.09549
2588 1 8.09311 52.4768 0.463575 180.95 0.000294836 -7.1511
2748 1 6.74181 50.6039 2.7792 180.95 0.000227712 -8.09764
2573 1 12.138 49.6592 2.78721 180.95 3.6149e-05 -8.09532
2578 1 10.7908 50.5837 0.475922 180.95 0.000299021 -7.15153
2580 1 12.1361 52.4948 2.7653 180.95 0.000276075 -8.0956
2425 1 13.4885 51.5303 0.469849 180.95 0.000323374 -7.15026
2574 1 14.833 50.604 2.77846 180.95 0.000451709 -8.09652
2601 1 2.6977 53.4232 0.457094 180.95 0.00028263 -7.15069
2619 1 0 55.3155 0.443485 180.95 0.000217683 -7.1511
2786 1 1.34576 54.3877 2.75267 180.95 0.000211053 -8.09635
2602 1 5.39541 54.3694 0.450399 180.95 0.000268458 -7.15067
2603 1 4.04514 55.3352 2.74657 180.95 0.000290858 -8.09676
2433 1 8.09311 55.3155 0.443485 180.95 0.000474224 -7.15159
2589 1 6.74059 53.4456 2.75966 180.95 0.000624854 -8.09794
2590 1 9.43955 54.3889 2.753 180.95 0.000455064 -8.09543
2427 1 10.7908 53.4232 0.457094 180.95 0.00012398 -7.15182
2429 1 12.1403 55.3327 2.74477 180.95 0.000281171 -8.09635
2426 1 14.8338 53.4456 2.76001 180.95 0.000482549 -8.09699
2428 1 13.4885 54.3694 0.450399 180.95 0.000104472 -7.15011
2620 1 2.6977 56.2614 0.436347 180.95 0.000180132 -7.15117
2621 1 1.34443 57.2293 2.73266 180.95 0.000326707 -8.09494
2641 1 0 58.1529 0.421375 180.95 0.000105354 -7.15149
2443 1 5.39541 57.2072 0.428978 180.95 0.000301169 -7.15066
2622 1 4.04448 58.1731 2.72492 180.95 0.000560369 -8.09837
2435 1 9.43995 57.2268 2.7324 180.95 0.000308148 -8.09512
2444 1 8.09311 58.1529 0.421375 180.95 0.00019645 -7.15177
2604 1 6.74306 56.2846 2.74102 180.95 0.000222632 -8.09601
2434 1 10.7908 56.2614 0.436347 180.95 0.000339713 -7.15157
2436 1 12.1365 58.1714 2.72478 180.95 0.000176623 -8.09739
2281 1 13.4885 57.2072 0.428978 180.95 9.81133e-06 -7.15139
2430 1 14.8359 56.2814 2.73964 180.95 4.61524e-05 -8.09457
2457 1 2.6977 59.0984 0.413535 180.95 0.000230341 -7.15166
2475 1 0 60.9893 0.397138 180.95 0.00015873 -7.1521
2476 1 2.6977 61.9346 0.388582 180.95 0.000552601 -7.15059
2642 1 1.34669 60.06 2.71059 180.95 0.000288054 -8.09574
2458 1 5.39541 60.0439 0.405456 180.95 0.000191324 -7.15193
2459 1 4.04263 61.0084 2.70075 180.95 0.000225123 -8.09684
2289 1 8.09311 60.9893 0.397138 180.95 0.000613851 -7.15053
2445 1 6.74224 59.1203 2.71901 180.95 5.07007e-05 -8.09396
2446 1 9.43751 60.0646 2.71035 180.95 0.000284045 -8.09706
2460 1 6.74394 61.9509 2.69216 180.95 0.000289911 -8.09732
2283 1 10.7908 59.0984 0.413535 180.95 1.97546e-05 -7.15173
2285 1 12.1381 61.0093 2.69929 180.95 0.000261629 -8.09832
2290 1 10.7908 61.9346 0.388582 180.95 0.000310978 -7.15119
2282 1 14.8354 59.1189 2.71712 180.95 0.000272873 -8.09735
2284 1 13.4885 60.0439 0.405456 180.95 0.00042093 -7.15089
2286 1 14.837 61.9564 2.68939 180.95 0.000126149 -8.09434
2313 1 2.6977 64.7702 0.361542 180.95 0.000273998 -7.15223
2477 1 1.34675 62.8977 2.68181 180.95 0.000642284 -8.09706
2497 1 0 63.825 0.370776 180.95 0.000365579 -7.15342
2299 1 5.39541 62.8798 0.379792 180.95 0.000180275 -7.15137
2478 1 4.04709 63.8417 2.67346 180.95 0.000167649 -8.09608
2291 1 9.44297 62.898 2.68564 180.95 0.000352602 -8.09696
2300 1 8.09311 63.825 0.370776 180.95 0.000212114 -7.15128
2301 1 6.7446 64.7867 2.66443 180.95 3.64441e-05 -8.09696
2139 1 10.7908 64.7702 0.361542 180.95 8.21399e-05 -7.15203
2292 1 12.1402 63.845 2.67104 180.95 5.93831e-05 -8.09587
2137 1 13.4885 62.8798 0.379792 180.95 0.000136277 -7.15174
2138 1 14.8377 64.7869 2.66339 180.95 0.000353332 -8.09505
2331 1 0 66.6606 0.342479 180.95 6.2357e-05 -7.15307
2332 1 2.6977 67.6058 0.33269 180.95 0.000216838 -7.15182
2498 1 1.34873 65.7283 2.65312 180.95 0.000326444 -8.0951
2314 1 5.39541 65.7154 0.352104 180.95 0.000187495 -7.15163
2315 1 4.0474 66.6771 2.64097 180.95 0.000144714 -8.09544
2145 1 8.09311 66.6606 0.342479 180.95 0.0001958 -7.1522
2302 1 9.44411 65.7333 2.65419 180.95 0.000133493 -8.09521
2316 1 6.74617 67.6241 2.63127 180.95 0.000237468 -8.09549
2141 1 12.1378 66.6755 2.64226 180.95 6.63224e-05 -8.09314
2146 1 10.7908 67.6058 0.33269 180.95 0.000344039 -7.15303
2140 1 13.4885 65.7154 0.352104 180.95 0.000219506 -7.15363
2142 1 14.8366 67.6204 2.63112 180.95 0.000252736 -8.09396
2169 1 2.6977 70.4421 0.302635 180.95 0.000376303 -7.15258
2333 1 1.34653 68.5661 2.61924 180.95 4.36434e-05 -8.09638
2353 1 0 69.4965 0.312732 180.95 0.000307855 -7.15292
2155 1 5.39541 68.5511 0.322764 180.95 0.000130783 -7.15324
2334 1 4.04659 69.5106 2.61014 180.95 0.000399447 -8.0953
2147 1 9.44299 68.5666 2.62042 180.95 1.4061e-05 -8.09496
2156 1 8.09311 69.4965 0.312732 180.95 0.000142566 -7.15408
2157 1 6.74324 70.4545 2.59997 180.95 0.000333242 -8.09364
1995 1 10.7908 70.4421 0.302635 180.95 0.000407056 -7.15371
2148 1 12.1375 69.509 2.61069 180.95 0.000139901 -8.09466
1993 1 13.4885 68.5511 0.322764 180.95 0.000252473 -7.15263
1994 1 14.8363 70.454 2.59987 180.95 0.000550737 -8.09607
2187 1 0 72.3337 0.282433 180.95 0.000410413 -7.15274
2188 1 2.6977 73.2799 0.27244 180.95 0.000274648 -7.15283
2189 1 1.34958 74.2351 2.55371 180.95 0.00033437 -8.0959
2354 1 1.34727 71.3995 2.58748 180.95 0.000155538 -8.09486
2011 1 5.39541 74.2263 0.262604 180.95 0.000488226 -7.15316
2170 1 5.39541 71.3878 0.292518 180.95 0.000272424 -7.15348
2171 1 4.04733 72.3461 2.57843 180.95 9.87684e-05 -8.09667
2001 1 8.09311 72.3337 0.282433 180.95 0.000300284 -7.15237
2003 1 9.44511 74.2371 2.55148 180.95 0.00021932 -8.09296
2158 1 9.44298 71.3997 2.58589 180.95 7.61962e-05 -8.09602
2172 1 6.7462 73.2876 2.56572 180.95 0.000279031 -8.09599
1997 1 12.1378 72.3444 2.57476 180.95 0.000309616 -8.0939
2002 1 10.7908 73.2799 0.27244 180.95 0.000300115 -7.15324
1849 1 13.4885 74.2263 0.262604 180.95 0.000505958 -7.15335
1996 1 13.4885 71.3878 0.292518 180.95 0.000247774 -7.15271
1998 1 14.8359 73.2893 2.56564 180.95 0.000342727 -8.09517
2025 1 2.6977 76.12 0.243702 180.95 0.000206162 -7.153
2209 1 0 75.173 0.252999 180.95 0.000373559 -7.15277
2210 1 1.35145 77.0741 2.52031 180.95 0.000292528 -8.09431
2026 1 5.39541 77.0672 0.234798 180.95 9.18856e-05 -7.15318
2190 1 4.04959 75.1818 2.54243 180.95 0.000359493 -8.09357
2012 1 8.09311 75.173 0.252999 180.95 0.000313372 -7.15371
2013 1 6.7431 76.1291 2.53166 180.95 0.000478656 -8.09426
2014 1 9.44337 77.0728 2.51783 180.95 0.000282978 -8.09389
1851 1 10.7908 76.12 0.243702 180.95 0.000311483 -7.15332
2004 1 12.1384 75.1821 2.54248 180.95 0.00040627 -8.09413
1850 1 14.8381 76.1284 2.53096 180.95 0.000259113 -8.09497
1852 1 13.4885 77.0672 0.234798 180.95 0.000186138 -7.15356
2043 1 0 78.0149 0.226374 180.95 0.000362107 -7.15394
2044 1 2.6977 78.9628 0.21852 180.95 0.000370508 -7.15368
2045 1 1.3506 79.9158 2.49056 180.95 0.000367474 -8.09176
1867 1 5.39541 79.9111 0.211326 180.95 0.00022582 -7.15354
2027 1 4.04945 78.02 2.51143 180.95 0.000211196 -8.09427
1857 1 8.09311 78.0149 0.226374 180.95 0.000197752 -7.15346
1859 1 9.44573 79.9147 2.49124 180.95 0.00034377 -8.09278
2028 1 6.74505 78.9704 2.50146 180.95 0.00027309 -8.09408
1853 1 12.1431 78.0214 2.51154 180.95 0.00016045 -8.09551
1858 1 10.7908 78.9628 0.21852 180.95 8.83075e-05 -7.15366
1705 1 13.4885 79.9111 0.211326 180.95 0.000231592 -7.15427
1854 1 14.8382 78.9659 2.50125 180.95 0.000266775 -8.09199
1881 1 2.6977 81.8085 0.199261 180.95 0.000212945 -7.15421
1899 1 0 83.707 0.190812 180.95 5.13631e-05 -7.15273
2065 1 0 80.8597 0.204878 180.95 0.000326583 -7.15366
2066 1 1.34804 82.7592 2.47081 180.95 0.000317229 -8.09263
1882 1 5.39541 82.7576 0.19455 180.95 0.000283579 -7.15337
1883 1 4.0459 83.7093 2.46778 180.95 0.000690764 -8.09504
2046 1 4.04827 80.8619 2.48611 180.95 9.60256e-05 -8.09532
1713 1 8.09311 83.707 0.190812 180.95 0.000330047 -7.15457
1868 1 8.09311 80.8597 0.204878 180.95 0.000236423 -7.15362
1869 1 6.74652 81.8124 2.47581 180.95 0.000314194 -8.0893
1870 1 9.44216 82.7583 2.47391 180.95 8.65417e-05 -8.09338
1707 1 10.7908 81.8085 0.199261 180.95 0.000200887 -7.15369
1709 1 12.1394 83.7121 2.46714 180.95 0.000310396 -8.09215
1860 1 12.1404 80.8648 2.48446 180.95 4.55685e-05 -8.09319
1706 1 14.8364 81.8094 2.47869 180.95 0.000156908 -8.09199
1708 1 13.4885 82.7576 0.19455 180.95 0.000386026 -7.15439
1900 1 2.6977 84.6565 0.188101 180.95 0.000483727 -7.15326
1901 1 1.34907 85.6057 2.46287 180.95 0.000264146 -8.09441
1921 1 0 86.5558 0.185908 180.95 0.000258919 -7.15335
1723 1 5.39541 85.6061 0.186458 180.95 9.31739e-05 -7.15368
1902 1 4.04721 86.5568 2.46117 180.95 0.000382243 -8.09154
1715 1 9.44118 85.6078 2.46164 180.95 0.000275076 -8.09551
1724 1 8.09311 86.5558 0.185908 180.95 0.000470739 -7.15205
1884 1 6.74351 84.6557 2.46498 180.95 0.000174402 -8.09284
1714 1 10.7908 84.6565 0.188101 180.95 0.000257451 -7.15266
1716 1 12.1402 86.5557 2.46127 180.95 8.70993e-05 -8.09177
1561 1 13.4885 85.6061 0.186458 180.95 0.000350205 -7.15404
1710 1 14.836 84.6565 2.46424 180.95 0.000285724 -8.09498
1737 1 2.6977 87.5054 0.186458 180.95 0.000615608 -7.15355
1755 1 0 89.4046 0.190812 180.95 0.000231863 -7.15288
1922 1 1.34808 88.4533 2.46495 180.95 5.11574e-05 -8.0934
1738 1 5.39541 88.4551 0.188102 180.95 0.000200122 -7.15333
1739 1 4.0469 89.4004 2.46752 180.95 0.000247199 -8.09171
1569 1 8.09311 89.4046 0.190812 180.95 0.000115262 -7.15408
1725 1 6.74531 87.5032 2.46189 180.95 0.000126211 -8.09399
1726 1 9.44348 88.4553 2.46473 180.95 0.000186449 -8.09149
1563 1 10.7908 87.5054 0.186458 180.95 0.000259299 -7.15339
1565 1 12.1402 89.4031 2.46827 180.95 0.000112658 -8.09209
1562 1 14.8352 87.504 2.46318 180.95 0.000344532 -8.09288
1564 1 13.4885 88.4551 0.188102 180.95 0.000203404 -7.15354
1756 1 2.6977 90.3539 0.194551 180.95 0.000276134 -7.15349
1757 1 1.34768 91.3007 2.47932 180.95 0.00033786 -8.09288
1777 1 0 92.2519 0.204879 180.95 0.000167177 -7.15315
1579 1 5.39541 91.303 0.199261 180.95 0.000255318 -7.15316
1758 1 4.04559 92.2479 2.48531 180.95 0.000435291 -8.09402
1571 1 9.44048 91.2989 2.4766 180.95 0.000312583 -8.09069
1580 1 8.09311 92.2519 0.204879 180.95 0.00030539 -7.15416
1740 1 6.74512 90.3526 2.47272 180.95 0.000141259 -8.09295
1570 1 10.7908 90.3539 0.194551 180.95 0.000130476 -7.15354
1572 1 12.1367 92.2467 2.48889 180.95 0.000527592 -8.09453
1417 1 13.4885 91.303 0.199261 180.95 0.000294024 -7.15453
1566 1 14.8356 90.3513 2.47371 180.95 0.000507501 -8.09244
1593 1 2.6977 93.2005 0.211326 180.95 0.000169632 -7.15298
1611 1 0 95.0967 0.226375 180.95 0.000443503 -7.15353
1612 1 2.6977 96.0443 0.234799 180.95 0.000162772 -7.15281
1778 1 1.34611 94.144 2.50122 180.95 0.000404443 -8.09395
1594 1 5.39541 94.1487 0.218521 180.95 0.000234229 -7.15386
1595 1 4.04616 95.09 2.51343 180.95 5.69506e-05 -8.09602
1425 1 8.09311 95.0967 0.226375 180.95 0.000284977 -7.15306
1581 1 6.74191 93.1955 2.49477 180.95 0.000423978 -8.09396
1582 1 9.4395 94.1419 2.50221 180.95 0.000437969 -8.09504
1596 1 6.74197 96.037 2.52113 180.95 0.000289036 -8.09494
1419 1 10.7908 93.2005 0.211326 180.95 0.000188302 -7.15389
1421 1 12.1382 95.0892 2.51264 180.95 0.000398291 -8.09412
1426 1 10.7908 96.0443 0.234799 180.95 0.000465534 -7.15333
1418 1 14.8366 93.1944 2.49152 180.95 0.000156479 -8.09291
1420 1 13.4885 94.1487 0.218521 180.95 0.000334893 -7.1526
1422 1 14.8357 96.0361 2.52111 180.95 0.000148182 -8.09595
1449 1 2.6977 98.8853 0.262605 180.95 0.000333387 -7.15245
1613 1 1.34847 96.983 2.53103 180.95 0.0003053 -8.09411
1633 1 0 97.9386 0.252999 180.95 0.000221601 -7.15248
1435 1 5.39541 96.9916 0.243703 180.95 0.000237786 -7.1532
1614 1 4.04673 97.9315 2.54455 180.95 8.23982e-05 -8.09627
1427 1 9.44226 96.981 2.53269 180.95 0.000230103 -8.09407
1436 1 8.09311 97.9386 0.252999 180.95 0.000110399 -7.15413
1437 1 6.74203 98.8748 2.55442 180.95 0.00041261 -8.09333
1275 1 10.7908 98.8853 0.262605 180.95 0.000284885 -7.15267
1428 1 12.14 97.9247 2.54449 180.95 0.000343912 -8.09452
1273 1 13.4885 96.9916 0.243703 180.95 0.000210122 -7.15262
1274 1 14.8378 98.8736 2.55527 180.95 0.000331596 -8.09379
1467 1 0 100.778 0.282434 180.95 0.000562891 -7.15313
1468 1 2.6977 101.724 0.292519 180.95 0.000449711 -7.15308
1634 1 1.35149 99.8205 2.56662 180.95 0.000267684 -8.09537
1450 1 5.39541 99.8317 0.272441 180.95 0.000541209 -7.15355
1451 1 4.04858 100.767 2.57964 180.95 0.000404941 -8.09474
1281 1 8.09311 100.778 0.282434 180.95 0.000513733 -7.1524
1438 1 9.44234 99.8196 2.56272 180.95 5.05203e-05 -8.09456
1452 1 6.74456 101.71 2.5875 180.95 0.000104106 -8.09461
1277 1 12.1389 100.766 2.57837 180.95 9.79322e-05 -8.09561
1282 1 10.7908 101.724 0.292519 180.95 0.000292185 -7.1537
1276 1 13.4885 99.8317 0.272441 180.95 0.000273866 -7.15313
1278 1 14.8378 101.707 2.58844 180.95 0.000425037 -8.09637
1305 1 2.6977 104.56 0.322764 180.95 9.44409e-05 -7.15272
1469 1 1.35126 102.654 2.59802 180.95 0.000127434 -8.09502
1489 1 0 103.615 0.312733 180.95 0.000344966 -7.15203
1291 1 5.39541 102.669 0.302636 180.95 0.000452698 -7.15249
1470 1 4.04686 103.6 2.61052 180.95 0.000257542 -8.09443
1283 1 9.44051 102.655 2.60099 180.95 0.000162932 -8.09522
1292 1 8.09311 103.615 0.312733 180.95 0.000119877 -7.15347
1293 1 6.74368 104.546 2.62283 180.95 0.000310064 -8.09416
1131 1 10.7908 104.56 0.322764 180.95 0.000555121 -7.15226
1284 1 12.1396 103.601 2.61017 180.95 8.74076e-05 -8.09561
1129 1 13.4885 102.669 0.302636 180.95 8.00288e-05 -7.15242
1130 1 14.8387 104.548 2.62032 180.95 0.00028687 -8.09471
1323 1 0 106.451 0.34248 180.95 0.000228247 -7.15365
1324 1 2.6977 107.396 0.352105 180.95 0.000516891 -7.15344
1325 1 1.34651 108.32 2.66512 180.95 3.50733e-05 -8.09798
1490 1 1.35069 105.49 2.63236 180.95 0.000386715 -8.09464
1147 1 5.39541 108.341 0.361543 180.95 0.000273065 -7.15124
1306 1 5.39541 105.506 0.332691 180.95 0.000410535 -7.15295
1307 1 4.04363 106.434 2.64567 180.95 0.000106468 -8.09572
1137 1 8.09311 106.451 0.34248 180.95 0.00042696 -7.15241
1139 1 9.44419 108.322 2.66333 180.95 0.000312315 -8.097
1294 1 9.44221 105.489 2.63154 180.95 0.000504131 -8.09379
1308 1 6.74318 107.379 2.6544 180.95 0.000238277 -8.09735
1133 1 12.1364 106.434 2.64317 180.95 7.65818e-05 -8.09608
1138 1 10.7908 107.396 0.352105 180.95 0.000256498 -7.15194
985 1 13.4885 108.341 0.361543 180.95 0.0001717 -7.15194
1132 1 13.4885 105.506 0.332691 180.95 0.000655086 -7.15323
1134 1 14.8372 107.378 2.65169 180.95 0.000121708 -8.09571
1161 1 2.6977 110.232 0.379793 180.95 0.000111855 -7.15163
1345 1 0 109.287 0.370777 180.95 0.000290492 -7.15283
1346 1 1.3462 111.156 2.69181 180.95 0.000140484 -8.09574
1162 1 5.39541 111.177 0.388582 180.95 0.000298173 -7.1518
1326 1 4.04695 109.265 2.67241 180.95 0.000279084 -8.09624
1148 1 8.09311 109.287 0.370777 180.95 7.02524e-05 -7.15186
1149 1 6.74608 110.213 2.68117 180.95 0.000301991 -8.09426
1150 1 9.44608 111.155 2.69098 180.95 0.000202547 -8.09677
987 1 10.7908 110.232 0.379793 180.95 0.000166139 -7.15125
1140 1 12.142 109.268 2.67257 180.95 0.000135962 -8.09705
986 1 14.8377 110.211 2.68127 180.95 0.000196428 -8.09473
988 1 13.4885 111.177 0.388582 180.95 0.000452499 -7.15243
1179 1 0 112.122 0.397138 180.95 0.000348036 -7.15151
1180 1 2.6977 113.068 0.405456 180.95 0.000715652 -7.15046
1181 1 1.34896 113.994 2.71506 180.95 0.000239948 -8.09643
1003 1 5.39541 114.013 0.413536 180.95 0.000573116 -7.15178
1163 1 4.04585 112.103 2.69751 180.95 0.000465914 -8.09722
993 1 8.09311 112.122 0.397138 180.95 0.000359962 -7.15226
995 1 9.44293 113.997 2.71177 180.95 0.000477761 -8.09743
1164 1 6.74618 113.049 2.70428 180.95 0.000496115 -8.09345
989 1 12.1436 112.103 2.7003 180.95 7.09915e-05 -8.09498
994 1 10.7908 113.068 0.405456 180.95 5.07308e-05 -7.15131
841 1 13.4885 114.013 0.413536 180.95 0.000311637 -7.15203
990 1 14.8381 113.049 2.70478 180.95 8.91939e-05 -8.09549
1017 1 2.6977 115.904 0.428978 180.95 0.000147403 -7.15131
1035 1 0 117.796 0.443486 180.95 0.000297627 -7.15158
1201 1 0 114.959 0.421376 180.95 0.000337481 -7.15225
1202 1 1.35108 116.828 2.73836 180.95 0.000241519 -8.09598
1018 1 5.39541 116.85 0.436347 180.95 0.000111574 -7.1525
1019 1 4.04792 117.773 2.74797 180.95 0.000295099 -8.09453
1182 1 4.04776 114.94 2.72267 180.95 0.000338407 -8.09601
849 1 8.09311 117.796 0.443486 180.95 0.000600665 -7.15163
1004 1 8.09311 114.959 0.421376 180.95 0.000391787 -7.15138
1005 1 6.74734 115.882 2.7305 180.95 0.000190617 -8.09656
1006 1 9.44411 116.83 2.73928 180.95 0.000192988 -8.09487
843 1 10.7908 115.904 0.428978 180.95 0.000307927 -7.15295
845 1 12.1452 117.774 2.74573 180.95 0.00019833 -8.09672
996 1 12.1424 114.937 2.72594 180.95 0.000276693 -8.09538
842 1 14.8377 115.884 2.72952 180.95 0.000198347 -8.09668
844 1 13.4885 116.85 0.436347 180.95 0.000206245 -7.15075
1036 1 2.6977 118.742 0.4504 180.95 0.000294724 -7.15117
1037 1 1.35184 119.666 2.76009 180.95 7.28795e-05 -8.09733
1057 1 0 120.635 0.463575 180.95 0.000335086 -7.15051
859 1 5.39541 119.688 0.457094 180.95 0.000242827 -7.15045
1038 1 4.05033 120.611 2.7676 180.95 0.000269704 -8.09572
851 1 9.44713 119.664 2.75788 180.95 0.000338501 -8.09479
860 1 8.09311 120.635 0.463575 180.95 0.00043125 -7.15203
1020 1 6.74756 118.718 2.75255 180.95 0.000124956 -8.09821
850 1 10.7908 118.742 0.4504 180.95 0.000449368 -7.15109
852 1 12.1436 120.612 2.76586 180.95 0.000396929 -8.09518
697 1 13.4885 119.688 0.457094 180.95 0.000103784 -7.15203
846 1 14.8382 118.72 2.75197 180.95 0.00027818 -8.09378
873 1 2.69771 121.581 0.469849 180.95 0.000359074 -7.15097