ITEM: TIMESTEP
323
ITEM: NUMBER OF ATOMS
8214
ITEM: BOX BOUNDS pp ff ff
0.0000000000000000e+00 1.6186228220311300e+01
0.0000000000000000e+00 1.7368087604622701e+02
0.0000000000000000e+00 7.0088424151210802e+01
ITEM: ATOMS id type x y z mass c_KE c_PE
3885 1 2.6977 2.1549 0.638693 180.95 0.00039551 -6.30759
4037 1 0 1.20341 0.640411 180.95 0.000129077 -5.44446
4018 1 4.04656 1.22224 2.98048 180.95 4.38013e-05 -6.23577
3872 1 8.09311 1.20341 0.640411 180.95 0.000103356 -5.44983
3873 1 6.74547 2.18952 2.91291 180.95 7.89666e-05 -7.19724
3722 1 10.7908 2.1549 0.638693 180.95 0.000297286 -6.30722
3865 1 12.1397 1.22224 2.98048 180.95 0.000306249 -6.2345
3721 1 14.8388 2.18711 2.92168 180.95 0.000159381 -7.19772
3903 1 0 4.05775 0.635169 180.95 0.000264032 -7.16402
3904 1 2.6977 5.00911 0.633363 180.95 0.000231597 -7.12726
3905 1 1.34601 5.92712 2.93757 180.95 0.000147752 -8.10713
4038 1 1.34564 2.9745 2.92247 180.95 4.2653e-05 -7.85432
3738 1 5.39541 5.96042 0.631525 180.95 0.000449959 -7.138
3886 1 5.39541 3.10635 0.636946 180.95 0.000321207 -6.82395
3887 1 4.03437 4.01143 2.93659 180.95 0.000403394 -8.1147
3728 1 8.09311 4.05775 0.635169 180.95 0.0002362 -7.16579
3730 1 9.43773 5.93579 2.93306 180.95 0.000333209 -8.10728
3874 1 9.43846 2.97015 2.91543 180.95 0.000308791 -7.85349
3888 1 6.74118 5.00045 2.93949 180.95 0.00036633 -8.05982
3724 1 12.1303 4.01492 2.93286 180.95 0.000256611 -8.11319
3729 1 10.7908 5.00911 0.633363 180.95 0.000280706 -7.12761
3577 1 13.4885 5.96042 0.631525 180.95 0.000197046 -7.14014
3723 1 13.4885 3.10635 0.636946 180.95 0.000292759 -6.82663
3725 1 14.832 4.99293 2.93698 180.95 0.000145236 -8.06002
3752 1 2.6977 7.86288 0.627752 180.95 0.000177616 -7.14123
3925 1 0 6.91168 0.629655 180.95 0.000289491 -7.14705
3926 1 1.3431 8.81195 2.92814 180.95 0.000219195 -8.10148
3753 1 5.39541 8.81404 0.625814 180.95 0.000233392 -7.14358
3906 1 4.03987 6.90618 2.93917 180.95 0.000118489 -8.10948
3739 1 8.09311 6.91168 0.629655 180.95 0.000281018 -7.1461
3740 1 6.74206 7.86665 2.9357 180.95 0.000445889 -8.09263
3741 1 9.43993 8.81636 2.92823 180.95 5.0425e-05 -8.10048
3579 1 10.7908 7.86288 0.627752 180.95 0.000213756 -7.14298
3731 1 12.1345 6.90712 2.93788 180.95 0.000420227 -8.10678
3578 1 14.8314 7.86584 2.93575 180.95 0.000293691 -8.09421
3580 1 13.4885 8.81404 0.625814 180.95 0.000145454 -7.144
3770 1 0 9.76515 0.623841 180.95 8.09256e-05 -7.14661
3771 1 2.6977 10.7162 0.621831 180.95 0.000141585 -7.14361
3772 1 1.34724 11.6741 2.91979 180.95 0.000218728 -8.10092
3595 1 5.39541 11.6672 0.619783 180.95 5.61528e-05 -7.14662
3754 1 4.04133 9.772 2.92529 180.95 0.000129921 -8.10315
3585 1 8.09311 9.76515 0.623841 180.95 0.000294989 -7.14563
3587 1 9.44146 11.6786 2.92112 180.95 0.000247338 -8.09766
3755 1 6.74301 10.7275 2.92377 180.95 0.000292328 -8.09777
3581 1 12.134 9.77309 2.92707 180.95 0.000249387 -8.10166
3586 1 10.7908 10.7162 0.621831 180.95 0.00021291 -7.1462
3433 1 13.4885 11.6672 0.619783 180.95 0.000468433 -7.14698
3582 1 14.8332 10.7251 2.92866 180.95 0.000143703 -8.0981
3609 1 2.6977 13.569 0.615569 180.95 0.000334607 -7.146
3627 1 0 15.4706 0.611186 180.95 0.000311462 -7.14699
3792 1 0 12.6181 0.617696 180.95 0.000251734 -7.14505
3793 1 1.34866 14.5363 2.91663 180.95 0.000149278 -8.10002
3610 1 5.39541 14.5198 0.613399 180.95 0.000124998 -7.14949
3611 1 4.04759 15.4893 2.91388 180.95 0.000287921 -8.0957
3773 1 4.04561 12.6364 2.91941 180.95 0.000223846 -8.09851
3441 1 8.09311 15.4706 0.611186 180.95 4.46099e-06 -7.14614
3596 1 8.09311 12.6181 0.617696 180.95 0.000305035 -7.14781
3597 1 6.74053 13.5823 2.9198 180.95 0.000252836 -8.09731
3598 1 9.44427 14.5335 2.91402 180.95 0.00039052 -8.09694
3435 1 10.7908 13.569 0.615569 180.95 0.000214986 -7.14607
3437 1 12.134 15.4865 2.92066 180.95 0.000451065 -8.09773
3588 1 12.1384 12.6319 2.91758 180.95 0.000133673 -8.09874
3434 1 14.8354 13.5822 2.91623 180.95 0.000337397 -8.09658
3436 1 13.4885 14.5198 0.613399 180.95 0.000188259 -7.14892
3628 1 2.6977 16.4213 0.608928 180.95 9.32551e-05 -7.14883
3629 1 1.34934 17.3891 2.90992 180.95 0.000129102 -8.0958
3649 1 0 18.3224 0.604271 180.95 0.000241599 -7.14992
3451 1 5.39541 17.3719 0.606624 180.95 0.000236059 -7.14807
3630 1 4.0425 18.3379 2.90564 180.95 0.000226296 -8.09666
3443 1 9.44271 17.3868 2.91312 180.95 0.000317259 -8.09999
3452 1 8.09311 18.3224 0.604271 180.95 0.000445979 -7.14794
3612 1 6.7398 16.4373 2.90915 180.95 0.000299385 -8.09608
3442 1 10.7908 16.4213 0.608928 180.95 0.000195383 -7.14953
3444 1 12.1366 18.3357 2.9074 180.95 0.000278505 -8.09556
3289 1 13.4885 17.3719 0.606624 180.95 0.000486276 -7.14543
3438 1 14.8392 16.4382 2.90793 180.95 0.00024972 -8.09789
3465 1 2.6977 19.2729 0.601868 180.95 2.20613e-05 -7.14769
3483 1 0 21.1737 0.596904 180.95 0.000166882 -7.14778
3650 1 1.34731 20.2379 2.90195 180.95 0.000179267 -8.09883
3466 1 5.39541 20.2233 0.599413 180.95 0.000228799 -7.14762
3467 1 4.0464 21.1908 2.90024 180.95 0.000288176 -8.09771
3297 1 8.09311 21.1737 0.596904 180.95 0.000108556 -7.148
3453 1 6.74165 19.2902 2.90563 180.95 0.000414126 -8.09845
3454 1 9.44193 20.2426 2.90349 180.95 0.000236439 -8.0979
3291 1 10.7908 19.2729 0.601868 180.95 0.00023241 -7.1458
3293 1 12.1377 21.1936 2.90603 180.95 5.98518e-05 -8.09826
3290 1 14.8373 19.287 2.90817 180.95 0.000518117 -8.09699
3292 1 13.4885 20.2233 0.599413 180.95 0.000142079 -7.14768
3484 1 2.6977 22.1239 0.59434 180.95 0.000152609 -7.14691
3485 1 1.34805 23.0932 2.89026 180.95 0.000351643 -8.09611
3505 1 0 24.0242 0.589034 180.95 0.000193412 -7.14813
3307 1 5.39541 23.0741 0.591717 180.95 0.000409936 -7.14703
3486 1 4.04786 24.0436 2.89247 180.95 0.000117075 -8.09663
3299 1 9.44189 23.0931 2.89151 180.95 0.000361343 -8.09695
3308 1 8.09311 24.0242 0.589034 180.95 0.000260883 -7.14971
3468 1 6.74521 22.1439 2.89496 180.95 0.000267815 -8.09781
3298 1 10.7908 22.1239 0.59434 180.95 0.000113832 -7.14841
3300 1 12.1393 24.0439 2.89068 180.95 0.000164102 -8.09551
3145 1 13.4885 23.0741 0.591717 180.95 0.000186011 -7.14727
3294 1 14.8378 22.1435 2.89726 180.95 9.95119e-06 -8.09857
3321 1 2.6977 24.9742 0.586288 180.95 0.000428406 -7.14899
3339 1 0 26.874 0.580599 180.95 0.000368628 -7.14776
3340 1 2.6977 27.8238 0.577651 180.95 0.00057998 -7.14899
3506 1 1.34749 25.9459 2.8848 180.95 0.00023661 -8.09582
3322 1 5.39541 25.9242 0.583478 180.95 0.00012525 -7.14882
3323 1 4.04472 26.894 2.88549 180.95 0.000357644 -8.09772
3153 1 8.09311 26.874 0.580599 180.95 0.00033862 -7.14866
3309 1 6.74514 24.9953 2.89045 180.95 0.000296424 -8.09638
3310 1 9.43923 25.9434 2.88408 180.95 0.000108674 -8.09893
3324 1 6.7431 27.8427 2.88213 180.95 0.000260783 -8.09818
3147 1 10.7908 24.9742 0.586288 180.95 0.000415532 -7.14915
3149 1 12.1387 26.8912 2.88425 180.95 0.000283852 -8.0966
3154 1 10.7908 27.8238 0.577651 180.95 0.000220963 -7.14865
3146 1 14.8359 24.9939 2.88792 180.95 8.82419e-05 -8.09597
3148 1 13.4885 25.9242 0.583478 180.95 0.00034676 -7.14919
3150 1 14.8351 27.8448 2.87778 180.95 0.000247002 -8.09666
3177 1 2.6977 30.6725 0.568353 180.95 0.000155636 -7.14756
3341 1 1.34561 28.7947 2.88092 180.95 0.000249178 -8.09696
3361 1 0 29.723 0.571531 180.95 0.000336422 -7.14923
3163 1 5.39541 28.7734 0.574629 180.95 0.000165349 -7.14889
3342 1 4.04473 29.7444 2.87733 180.95 7.62589e-06 -8.09764
3155 1 9.43912 28.7938 2.87784 180.95 0.000412576 -8.09513
3164 1 8.09311 29.723 0.571531 180.95 0.00018996 -7.14868
3165 1 6.74072 30.6933 2.87101 180.95 0.000223241 -8.09667
3003 1 10.7908 30.6725 0.568353 180.95 6.27288e-05 -7.14759
3156 1 12.1385 29.7454 2.87449 180.95 0.00022774 -8.09826
3001 1 13.4885 28.7734 0.574629 180.95 0.000315692 -7.1475
3002 1 14.8341 30.6938 2.87337 180.95 0.000124181 -8.09821
3195 1 0 32.5711 0.561747 180.95 8.83672e-05 -7.14821
3196 1 2.6977 33.5203 0.558311 180.95 0.000275279 -7.1485
3362 1 1.34748 31.645 2.86816 180.95 0.000284499 -8.09676
3178 1 5.39541 31.6218 0.565093 180.95 0.000408283 -7.14864
3179 1 4.0447 32.5932 2.86761 180.95 0.000175451 -8.09834
3009 1 8.09311 32.5711 0.561747 180.95 0.000193926 -7.14926
3166 1 9.43962 31.6424 2.86666 180.95 9.23106e-05 -8.09541
3180 1 6.73982 33.5391 2.86441 180.95 0.000282758 -8.09568
3005 1 12.14 32.5913 2.86849 180.95 0.00037011 -8.09787
3010 1 10.7908 33.5203 0.558311 180.95 6.84524e-05 -7.14991
3004 1 13.4885 31.6218 0.565093 180.95 0.000477512 -7.14905
3006 1 14.8348 33.5427 2.8627 180.95 0.000217074 -8.09577
3033 1 2.6977 36.3671 0.547428 180.95 0.000374062 -7.15024
3197 1 1.34922 34.4909 2.85814 180.95 0.000293954 -8.09716
3217 1 0 35.4183 0.551156 180.95 7.33724e-05 -7.14871
3019 1 5.39541 34.4693 0.554782 180.95 0.00025109 -7.14913
3198 1 4.04194 35.4391 2.86137 180.95 0.000257439 -8.09733
3011 1 9.44011 34.4881 2.85807 180.95 9.13828e-05 -8.09672
3020 1 8.09311 35.4183 0.551156 180.95 0.000242168 -7.14773
3021 1 6.7422 36.3881 2.85293 180.95 2.64407e-05 -8.09683
2859 1 10.7908 36.3671 0.547428 180.95 5.37736e-05 -7.14837
3012 1 12.1372 35.4388 2.85342 180.95 0.000413864 -8.09797
2857 1 13.4885 34.4693 0.554782 180.95 0.000246137 -7.14814
2858 1 14.8376 36.3875 2.8514 180.95 0.000215747 -8.09718
3051 1 0 38.2644 0.539651 180.95 0.000233222 -7.14864
3052 1 2.6977 39.2128 0.535593 180.95 0.000389993 -7.14898
3053 1 1.35025 40.1816 2.83868 180.95 0.000224766 -8.09706
3218 1 1.34649 37.3368 2.8491 180.95 0.000257588 -8.09768
2875 1 5.39541 40.1611 0.531414 180.95 0.000296781 -7.14794
3034 1 5.39541 37.3158 0.543595 180.95 0.000347595 -7.14756
3035 1 4.04403 38.2838 2.84458 180.95 0.000253926 -8.09716
2865 1 8.09311 38.2644 0.539651 180.95 0.000265441 -7.1492
2867 1 9.43934 40.1826 2.83707 180.95 0.00021775 -8.09763
3022 1 9.4424 37.3337 2.85066 180.95 0.000106738 -8.09809
3036 1 6.74236 39.2339 2.84053 180.95 0.000199771 -8.09647
2861 1 12.1395 38.2835 2.84586 180.95 0.000409796 -8.0974
2866 1 10.7908 39.2128 0.535593 180.95 0.000250773 -7.14805
2713 1 13.4885 40.1611 0.531414 180.95 0.000157488 -7.14878
2860 1 13.4885 37.3158 0.543595 180.95 0.000214847 -7.14839
2862 1 14.8389 39.2348 2.84229 180.95 0.000274136 -8.0977
2889 1 2.6977 42.0574 0.522676 180.95 0.000386882 -7.1486
3073 1 0 41.1093 0.52711 180.95 0.000380978 -7.14895
3074 1 1.35001 43.0307 2.8217 180.95 0.000152623 -8.09682
2890 1 5.39541 43.0053 0.518106 180.95 0.000244813 -7.14881
3054 1 4.04289 41.1312 2.83229 180.95 0.000194798 -8.09708
2876 1 8.09311 41.1093 0.52711 180.95 0.000245655 -7.14957
2877 1 6.74498 42.0826 2.82783 180.95 0.000380585 -8.09666
2878 1 9.4414 43.0265 2.82136 180.95 0.000268326 -8.09744
2715 1 10.7908 42.0574 0.522676 180.95 0.000389545 -7.14764
2868 1 12.1403 41.1337 2.83188 180.95 0.000212974 -8.09815
2714 1 14.8375 42.0796 2.82698 180.95 0.000298917 -8.09644
2716 1 13.4885 43.0053 0.518106 180.95 0.000403909 -7.15006
2907 1 0 43.9531 0.513395 180.95 0.000251666 -7.14932
2908 1 2.6977 44.9008 0.508535 180.95 0.000257074 -7.14959
2909 1 1.34775 45.8735 2.80826 180.95 0.000165295 -8.09471
2731 1 5.39541 45.8483 0.503522 180.95 0.000331673 -7.1494
2891 1 4.04494 43.976 2.81876 180.95 0.000137541 -8.09612
2721 1 8.09311 43.9531 0.513395 180.95 0.000471782 -7.1493
2723 1 9.44178 45.8722 2.81165 180.95 0.000117726 -8.09812
2892 1 6.74342 44.9214 2.81662 180.95 0.000373398 -8.09607
2717 1 12.1419 43.9785 2.81936 180.95 0.00017755 -8.09578
2722 1 10.7908 44.9008 0.508535 180.95 0.000307311 -7.15031
2569 1 13.4885 45.8483 0.503522 180.95 0.000579244 -7.14983
2718 1 14.8356 44.9234 2.81363 180.95 0.000141962 -8.09533
2745 1 2.6977 47.7429 0.493009 180.95 0.000144799 -7.15021
2929 1 0 46.7957 0.498349 180.95 0.000198769 -7.14942
2930 1 1.35063 48.7107 2.79391 180.95 0.000271414 -8.09737
2746 1 5.39541 48.69 0.487496 180.95 0.00012696 -7.14945
2910 1 4.04239 46.8218 2.80758 180.95 0.000344601 -8.099
2732 1 8.09311 46.7957 0.498349 180.95 0.000323758 -7.14868
2733 1 6.74571 47.7687 2.7997 180.95 0.000354372 -8.09924
2734 1 9.43997 48.7131 2.79598 180.95 0.000226881 -8.09576
2571 1 10.7908 47.7429 0.493009 180.95 0.000335137 -7.14975
2724 1 12.1386 46.8182 2.80285 180.95 0.00021571 -8.09609
2570 1 14.8369 47.765 2.80029 180.95 0.000113558 -8.09601
2572 1 13.4885 48.69 0.487496 180.95 0.000165065 -7.15004
2763 1 0 49.6369 0.481802 180.95 0.000349252 -7.14852
2764 1 2.6977 50.5837 0.475922 180.95 0.000379907 -7.1498
2765 1 1.35034 51.5525 2.78134 180.95 0.000148175 -8.09901
2785 1 0 52.4768 0.463575 180.95 0.000117364 -7.15038
2587 1 5.39541 51.5303 0.469849 180.95 0.000149907 -7.15023
2747 1 4.04647 49.659 2.78778 180.95 0.000166764 -8.09534
2766 1 4.04823 52.4978 2.77181 180.95 0.000222279 -8.0955
2577 1 8.09311 49.6369 0.481802 180.95 0.00020663 -7.1513
2579 1 9.43965 51.5528 2.77455 180.95 0.000329364 -8.0944
2588 1 8.09311 52.4768 0.463575 180.95 0.000294836 -7.14987
2748 1 6.74122 50.6075 2.78161 180.95 0.000227712 -8.09714
2573 1 12.1414 49.659 2.78648 180.95 3.6149e-05 -8.09572
2578 1 10.7908 50.5837 0.475922 180.95 0.000299021 -7.14854
2580 1 12.1402 52.5015 2.77149 180.95 0.000276075 -8.09752
2425 1 13.4885 51.5303 0.469849 180.95 0.000323374 -7.14952
2574 1 14.8362 50.6078 2.7807 180.95 0.000451709 -8.09561
2601 1 2.6977 53.4232 0.457094 180.95 0.00028263 -7.15024
2619 1 0 55.3155 0.443485 180.95 0.000217683 -7.15021
2786 1 1.34803 54.3942 2.76028 180.95 0.000211053 -8.09649
2602 1 5.39541 54.3694 0.450399 180.95 0.000268458 -7.14997
2603 1 4.04372 55.3365 2.7514 180.95 0.000290858 -8.09544
2433 1 8.09311 55.3155 0.443485 180.95 0.000474224 -7.15002
2589 1 6.74018 53.4472 2.76238 180.95 0.000624854 -8.09302
2590 1 9.44026 54.3925 2.7581 180.95 0.000455064 -8.09645
2427 1 10.7908 53.4232 0.457094 180.95 0.00012398 -7.14971
2429 1 12.1395 55.3402 2.75273 180.95 0.000281171 -8.09752
2426 1 14.8379 53.4466 2.76701 180.95 0.000482549 -8.09639
2428 1 13.4885 54.3694 0.450399 180.95 0.000104472 -7.14966
2620 1 2.6977 56.2614 0.436347 180.95 0.000180132 -7.1508
2621 1 1.3478 57.2296 2.73841 180.95 0.000326707 -8.09689
2641 1 0 58.1529 0.421375 180.95 0.000105354 -7.14989
2443 1 5.39541 57.2072 0.428978 180.95 0.000301169 -7.14983
2622 1 4.04814 58.1698 2.72951 180.95 0.000560369 -8.09572
2435 1 9.44108 57.232 2.73715 180.95 0.000308148 -8.0993
2444 1 8.09311 58.1529 0.421375 180.95 0.00019645 -7.1491
2604 1 6.74185 56.2804 2.74574 180.95 0.000222632 -8.09754
2434 1 10.7908 56.2614 0.436347 180.95 0.000339713 -7.14877
2436 1 12.1426 58.1774 2.73354 180.95 0.000176623 -8.09705
2281 1 13.4885 57.2072 0.428978 180.95 9.81133e-06 -7.1518
2430 1 14.8356 56.2852 2.74929 180.95 4.61524e-05 -8.09869
2457 1 2.6977 59.0984 0.413535 180.95 0.000230341 -7.15083
2475 1 0 60.9893 0.397138 180.95 0.00015873 -7.15162
2476 1 2.6977 61.9346 0.388582 180.95 0.000552601 -7.15082
2642 1 1.34847 60.0629 2.71288 180.95 0.000288054 -8.09483
2458 1 5.39541 60.0439 0.405456 180.95 0.000191324 -7.15076
2459 1 4.04639 61.0083 2.70397 180.95 0.000225123 -8.09679
2289 1 8.09311 60.9893 0.397138 180.95 0.000613851 -7.1513
2445 1 6.74494 59.1189 2.72095 180.95 5.07007e-05 -8.09604
2446 1 9.44064 60.065 2.71416 180.95 0.000284045 -8.09717
2460 1 6.74297 61.954 2.69353 180.95 0.000289911 -8.09664
2283 1 10.7908 59.0984 0.413535 180.95 1.97546e-05 -7.15136
2285 1 12.1421 61.0105 2.70321 180.95 0.000261629 -8.09524
2290 1 10.7908 61.9346 0.388582 180.95 0.000310978 -7.15041
2282 1 14.8358 59.1183 2.71974 180.95 0.000272873 -8.09505
2284 1 13.4885 60.0439 0.405456 180.95 0.00042093 -7.1511
2286 1 14.8346 61.9534 2.69424 180.95 0.000126149 -8.09489
2313 1 2.6977 64.7702 0.361542 180.95 0.000273998 -7.15237
2477 1 1.34958 62.9001 2.68111 180.95 0.000642284 -8.0939
2497 1 0 63.825 0.370776 180.95 0.000365579 -7.15109
2299 1 5.39541 62.8798 0.379792 180.95 0.000180275 -7.15103
2478 1 4.04483 63.8434 2.67527 180.95 0.000167649 -8.09772
2291 1 9.44329 62.898 2.68416 180.95 0.000352602 -8.09541
2300 1 8.09311 63.825 0.370776 180.95 0.000212114 -7.15178
2301 1 6.74467 64.7871 2.66625 180.95 3.64441e-05 -8.0948
2139 1 10.7908 64.7702 0.361542 180.95 8.21399e-05 -7.15212
2292 1 12.1394 63.8436 2.67696 180.95 5.93831e-05 -8.09446
2137 1 13.4885 62.8798 0.379792 180.95 0.000136277 -7.15162
2138 1 14.8391 64.7864 2.66762 180.95 0.000353332 -8.09672
2331 1 0 66.6606 0.342479 180.95 6.2357e-05 -7.15185
2332 1 2.6977 67.6058 0.33269 180.95 0.000216838 -7.15091
2498 1 1.35134 65.7298 2.65482 180.95 0.000326444 -8.09595
2314 1 5.39541 65.7154 0.352104 180.95 0.000187495 -7.15201
2315 1 4.04748 66.6765 2.64535 180.95 0.000144714 -8.09606
2145 1 8.09311 66.6606 0.342479 180.95 0.0001958 -7.15173
2302 1 9.44006 65.733 2.65501 180.95 0.000133493 -8.09624
2316 1 6.74731 67.6166 2.63534 180.95 0.000237468 -8.09544
2141 1 12.1419 66.6732 2.64677 180.95 6.63224e-05 -8.09609
2146 1 10.7908 67.6058 0.33269 180.95 0.000344039 -7.15219
2140 1 13.4885 65.7154 0.352104 180.95 0.000219506 -7.1518
2142 1 14.8368 67.6195 2.63634 180.95 0.000252736 -8.09651
2169 1 2.6977 70.4421 0.302635 180.95 0.000376303 -7.15309
2333 1 1.35264 68.5669 2.62075 180.95 4.36434e-05 -8.09498
2353 1 0 69.4965 0.312732 180.95 0.000307855 -7.15126
2155 1 5.39541 68.5511 0.322764 180.95 0.000130783 -7.15263
2334 1 4.04638 69.5117 2.61662 180.95 0.000399447 -8.09441
2147 1 9.44083 68.5627 2.62542 180.95 1.4061e-05 -8.09483
2156 1 8.09311 69.4965 0.312732 180.95 0.000142566 -7.15231
2157 1 6.74262 70.4562 2.60415 180.95 0.000333242 -8.09825
1995 1 10.7908 70.4421 0.302635 180.95 0.000407056 -7.15056
2148 1 12.1411 69.5114 2.61335 180.95 0.000139901 -8.0976
1993 1 13.4885 68.5511 0.322764 180.95 0.000252473 -7.15148
1994 1 14.8373 70.4579 2.60114 180.95 0.000550737 -8.09723
2187 1 0 72.3337 0.282433 180.95 0.000410413 -7.15327
2188 1 2.6977 73.2799 0.27244 180.95 0.000274648 -7.15417
2189 1 1.35107 74.2387 2.55636 180.95 0.00033437 -8.095
2354 1 1.3524 71.4001 2.59055 180.95 0.000155538 -8.09645
2011 1 5.39541 74.2263 0.262604 180.95 0.000488226 -7.15067
2170 1 5.39541 71.3878 0.292518 180.95 0.000272424 -7.15183
2171 1 4.04717 72.3438 2.58356 180.95 9.87684e-05 -8.09492
2001 1 8.09311 72.3337 0.282433 180.95 0.000300284 -7.15233
2003 1 9.44047 74.2366 2.5574 180.95 0.00021932 -8.09521
2158 1 9.44327 71.3996 2.59035 180.95 7.61962e-05 -8.09602
2172 1 6.74513 73.2913 2.56962 180.95 0.000279031 -8.09384
1997 1 12.1455 72.3496 2.57712 180.95 0.000309616 -8.095
2002 1 10.7908 73.2799 0.27244 180.95 0.000300115 -7.15234
1849 1 13.4885 74.2263 0.262604 180.95 0.000505958 -7.15388
1996 1 13.4885 71.3878 0.292518 180.95 0.000247774 -7.15107
1998 1 14.8372 73.2949 2.57056 180.95 0.000342727 -8.09504
2025 1 2.6977 76.12 0.243702 180.95 0.000206162 -7.15358
2209 1 0 75.173 0.252999 180.95 0.000373559 -7.1535
2210 1 1.34931 77.0739 2.52293 180.95 0.000292528 -8.09313
2026 1 5.39541 77.0672 0.234798 180.95 9.18856e-05 -7.15362
2190 1 4.04649 75.1807 2.54311 180.95 0.000359493 -8.09285
2012 1 8.09311 75.173 0.252999 180.95 0.000313372 -7.15278
2013 1 6.74671 76.1285 2.53806 180.95 0.000478656 -8.09595
2014 1 9.44197 77.0718 2.52719 180.95 0.000282978 -8.09489
1851 1 10.7908 76.12 0.243702 180.95 0.000311483 -7.15264
2004 1 12.1444 75.1819 2.54605 180.95 0.00040627 -8.09531
1850 1 14.8377 76.128 2.5371 180.95 0.000259113 -8.09287
1852 1 13.4885 77.0672 0.234798 180.95 0.000186138 -7.15389
2043 1 0 78.0149 0.226374 180.95 0.000362107 -7.1524
2044 1 2.6977 78.9628 0.21852 180.95 0.000370508 -7.15275
2045 1 1.34921 79.9136 2.49911 180.95 0.000367474 -8.0943
1867 1 5.39541 79.9111 0.211326 180.95 0.00022582 -7.15189
2027 1 4.04749 78.0179 2.51426 180.95 0.000211196 -8.09491
1857 1 8.09311 78.0149 0.226374 180.95 0.000197752 -7.15297
1859 1 9.44344 79.9145 2.49552 180.95 0.00034377 -8.09602
2028 1 6.74567 78.9656 2.505 180.95 0.00027309 -8.09443
1853 1 12.1415 78.019 2.51763 180.95 0.00016045 -8.09522
1858 1 10.7908 78.9628 0.21852 180.95 8.83075e-05 -7.1509
1705 1 13.4885 79.9111 0.211326 180.95 0.000231592 -7.15189
1854 1 14.8359 78.9652 2.50746 180.95 0.000266775 -8.09453
1881 1 2.6977 81.8085 0.199261 180.95 0.000212945 -7.15161
1899 1 0 83.707 0.190812 180.95 5.13631e-05 -7.15191
2065 1 0 80.8597 0.204878 180.95 0.000326583 -7.15168
2066 1 1.34837 82.7608 2.47887 180.95 0.000317229 -8.09422
1882 1 5.39541 82.7576 0.19455 180.95 0.000283579 -7.15216
1883 1 4.04562 83.7111 2.4767 180.95 0.000690764 -8.0947
2046 1 4.04954 80.8624 2.49183 180.95 9.60256e-05 -8.0955
1713 1 8.09311 83.707 0.190812 180.95 0.000330047 -7.15214
1868 1 8.09311 80.8597 0.204878 180.95 0.000236423 -7.15174
1869 1 6.74879 81.8095 2.48558 180.95 0.000314194 -8.09465
1870 1 9.44412 82.7618 2.47838 180.95 8.65417e-05 -8.09357
1707 1 10.7908 81.8085 0.199261 180.95 0.000200887 -7.15192
1709 1 12.1396 83.715 2.47588 180.95 0.000310396 -8.09431
1860 1 12.1432 80.8648 2.49241 180.95 4.55685e-05 -8.09678
1706 1 14.8398 81.8109 2.48495 180.95 0.000156908 -8.09268
1708 1 13.4885 82.7576 0.19455 180.95 0.000386026 -7.15263
1900 1 2.6977 84.6565 0.188101 180.95 0.000483727 -7.15125
1901 1 1.34901 85.6067 2.47235 180.95 0.000264146 -8.09592
1921 1 0 86.5558 0.185908 180.95 0.000258919 -7.15152
1723 1 5.39541 85.6061 0.186458 180.95 9.31739e-05 -7.15249
1902 1 4.04837 86.5584 2.47271 180.95 0.000382243 -8.09522
1715 1 9.44285 85.6076 2.4702 180.95 0.000275076 -8.09399
1724 1 8.09311 86.5558 0.185908 180.95 0.000470739 -7.15213
1884 1 6.74479 84.66 2.47419 180.95 0.000174402 -8.097
1714 1 10.7908 84.6565 0.188101 180.95 0.000257451 -7.15421
1716 1 12.1343 86.5568 2.46342 180.95 8.70993e-05 -8.08933
1561 1 13.4885 85.6061 0.186458 180.95 0.000350205 -7.15287
1710 1 14.839 84.6566 2.47436 180.95 0.000285724 -8.0945
1737 1 2.6977 87.5054 0.186458 180.95 0.000615608 -7.1515
1755 1 0 89.4046 0.190812 180.95 0.000231863 -7.15221
1922 1 1.34979 88.4557 2.47302 180.95 5.11574e-05 -8.0948
1738 1 5.39541 88.4551 0.188102 180.95 0.000200122 -7.15227
1739 1 4.04868 89.4043 2.4758 180.95 0.000247199 -8.09342
1569 1 8.09311 89.4046 0.190812 180.95 0.000115262 -7.15121
1725 1 6.7422 87.5059 2.47054 180.95 0.000126211 -8.09351
1726 1 9.44123 88.455 2.47231 180.95 0.000186449 -8.09584
1563 1 10.7908 87.5054 0.186458 180.95 0.000259299 -7.15144
1565 1 12.1388 89.404 2.47447 180.95 0.000112658 -8.09421
1562 1 14.8362 87.5055 2.47143 180.95 0.000344532 -8.09537
1564 1 13.4885 88.4551 0.188102 180.95 0.000203404 -7.15268
1756 1 2.6977 90.3539 0.194551 180.95 0.000276134 -7.15246
1757 1 1.34946 91.2986 2.48382 180.95 0.00033786 -8.09337
1777 1 0 92.2519 0.204879 180.95 0.000167177 -7.15186
1579 1 5.39541 91.303 0.199261 180.95 0.000255318 -7.1522
1758 1 4.04685 92.2492 2.48984 180.95 0.000435291 -8.09523
1571 1 9.4417 91.3041 2.48516 180.95 0.000312583 -8.09441
1580 1 8.09311 92.2519 0.204879 180.95 0.00030539 -7.15248
1740 1 6.7442 90.3517 2.47805 180.95 0.000141259 -8.09469
1570 1 10.7908 90.3539 0.194551 180.95 0.000130476 -7.15202
1572 1 12.1428 92.2467 2.49208 180.95 0.000527592 -8.09471
1417 1 13.4885 91.303 0.199261 180.95 0.000294024 -7.15336
1566 1 14.8397 90.3514 2.47948 180.95 0.000507501 -8.09515
1593 1 2.6977 93.2005 0.211326 180.95 0.000169632 -7.15234
1611 1 0 95.0967 0.226375 180.95 0.000443503 -7.15371
1612 1 2.6977 96.0443 0.234799 180.95 0.000162772 -7.15214
1778 1 1.34993 94.1424 2.50845 180.95 0.000404443 -8.09579
1594 1 5.39541 94.1487 0.218521 180.95 0.000234229 -7.15246
1595 1 4.04747 95.0909 2.51526 180.95 5.69506e-05 -8.09507
1425 1 8.09311 95.0967 0.226375 180.95 0.000284977 -7.15299
1581 1 6.74575 93.1974 2.49765 180.95 0.000423978 -8.09425
1582 1 9.44126 94.1428 2.50746 180.95 0.000437969 -8.09421
1596 1 6.74884 96.037 2.52509 180.95 0.000289036 -8.0956
1419 1 10.7908 93.2005 0.211326 180.95 0.000188302 -7.15302
1421 1 12.1413 95.0924 2.51559 180.95 0.000398291 -8.09363
1426 1 10.7908 96.0443 0.234799 180.95 0.000465534 -7.15249
1418 1 14.8383 93.1952 2.49451 180.95 0.000156479 -8.09234
1420 1 13.4885 94.1487 0.218521 180.95 0.000334893 -7.15201
1422 1 14.8389 96.0357 2.52656 180.95 0.000148182 -8.0953
1449 1 2.6977 98.8853 0.262605 180.95 0.000333387 -7.15289
1613 1 1.34951 96.9821 2.53596 180.95 0.0003053 -8.09456
1633 1 0 97.9386 0.252999 180.95 0.000221601 -7.15264
1435 1 5.39541 96.9916 0.243703 180.95 0.000237786 -7.15395
1614 1 4.0472 97.9281 2.54769 180.95 8.23982e-05 -8.09496
1427 1 9.43993 96.9875 2.53329 180.95 0.000230103 -8.09254
1436 1 8.09311 97.9386 0.252999 180.95 0.000110399 -7.153
1437 1 6.746 98.8766 2.5517 180.95 0.00041261 -8.09424
1275 1 10.7908 98.8853 0.262605 180.95 0.000284885 -7.15312
1428 1 12.1401 97.9273 2.54752 180.95 0.000343912 -8.09567
1273 1 13.4885 96.9916 0.243703 180.95 0.000210122 -7.15412
1274 1 14.8353 98.8727 2.55733 180.95 0.000331596 -8.0947
1467 1 0 100.778 0.282434 180.95 0.000562891 -7.15238
1468 1 2.6977 101.724 0.292519 180.95 0.000449711 -7.15099
1634 1 1.34952 99.8172 2.57068 180.95 0.000267684 -8.09512
1450 1 5.39541 99.8317 0.272441 180.95 0.000541209 -7.15155
1451 1 4.0481 100.767 2.57736 180.95 0.000404941 -8.09368
1281 1 8.09311 100.778 0.282434 180.95 0.000513733 -7.15472
1438 1 9.4394 99.817 2.56882 180.95 5.05203e-05 -8.09224
1452 1 6.74076 101.709 2.59359 180.95 0.000104106 -8.09536
1277 1 12.136 100.767 2.58457 180.95 9.79322e-05 -8.09652
1282 1 10.7908 101.724 0.292519 180.95 0.000292185 -7.15197
1276 1 13.4885 99.8317 0.272441 180.95 0.000273866 -7.15242
1278 1 14.8369 101.711 2.59237 180.95 0.000425037 -8.09643
1305 1 2.6977 104.56 0.322764 180.95 9.44409e-05 -7.15253
1469 1 1.3491 102.654 2.60363 180.95 0.000127434 -8.09655
1489 1 0 103.615 0.312733 180.95 0.000344966 -7.15243
1291 1 5.39541 102.669 0.302636 180.95 0.000452698 -7.15317
1470 1 4.04898 103.6 2.61505 180.95 0.000257542 -8.09573
1283 1 9.43946 102.654 2.60358 180.95 0.000162932 -8.09959
1292 1 8.09311 103.615 0.312733 180.95 0.000119877 -7.15134
1293 1 6.74773 104.544 2.62368 180.95 0.000310064 -8.09664
1131 1 10.7908 104.56 0.322764 180.95 0.000555121 -7.15152
1284 1 12.1387 103.602 2.61258 180.95 8.74076e-05 -8.09546
1129 1 13.4885 102.669 0.302636 180.95 8.00288e-05 -7.15092
1130 1 14.8368 104.546 2.62556 180.95 0.00028687 -8.09476
1323 1 0 106.451 0.34248 180.95 0.000228247 -7.15215
1324 1 2.6977 107.396 0.352105 180.95 0.000516891 -7.15098
1325 1 1.34678 108.322 2.66521 180.95 3.50733e-05 -8.09336
1490 1 1.34788 105.489 2.63551 180.95 0.000386715 -8.09561
1147 1 5.39541 108.341 0.361543 180.95 0.000273065 -7.1507
1306 1 5.39541 105.506 0.332691 180.95 0.000410535 -7.15081
1307 1 4.0476 106.43 2.64631 180.95 0.000106468 -8.09466
1137 1 8.09311 106.451 0.34248 180.95 0.00042696 -7.15256
1139 1 9.44367 108.322 2.66616 180.95 0.000312315 -8.09872
1294 1 9.43966 105.489 2.63506 180.95 0.000504131 -8.09406
1308 1 6.74297 107.383 2.65884 180.95 0.000238277 -8.09685
1133 1 12.1373 106.435 2.64542 180.95 7.65818e-05 -8.09659
1138 1 10.7908 107.396 0.352105 180.95 0.000256498 -7.14997
985 1 13.4885 108.341 0.361543 180.95 0.0001717 -7.15252
1132 1 13.4885 105.506 0.332691 180.95 0.000655086 -7.15242
1134 1 14.839 107.379 2.65456 180.95 0.000121708 -8.09535
1161 1 2.6977 110.232 0.379793 180.95 0.000111855 -7.15119
1345 1 0 109.287 0.370777 180.95 0.000290492 -7.15204
1346 1 1.34705 111.158 2.6943 180.95 0.000140484 -8.09832
1162 1 5.39541 111.177 0.388582 180.95 0.000298173 -7.15074
1326 1 4.04564 109.268 2.68039 180.95 0.000279084 -8.09888
1148 1 8.09311 109.287 0.370777 180.95 7.02524e-05 -7.15139
1149 1 6.74334 110.215 2.68732 180.95 0.000301991 -8.09372
1150 1 9.43853 111.161 2.69652 180.95 0.000202547 -8.09672
987 1 10.7908 110.232 0.379793 180.95 0.000166139 -7.15203
1140 1 12.143 109.27 2.67776 180.95 0.000135962 -8.0929
986 1 14.8332 110.212 2.68281 180.95 0.000196428 -8.0955
988 1 13.4885 111.177 0.388582 180.95 0.000452499 -7.15128
1179 1 0 112.122 0.397138 180.95 0.000348036 -7.15088
1180 1 2.6977 113.068 0.405456 180.95 0.000715652 -7.15026
1181 1 1.34807 113.991 2.72175 180.95 0.000239948 -8.09681
1003 1 5.39541 114.013 0.413536 180.95 0.000573116 -7.15163
1163 1 4.04785 112.101 2.70556 180.95 0.000465914 -8.09791
993 1 8.09311 112.122 0.397138 180.95 0.000359962 -7.15059
995 1 9.44143 113.989 2.7217 180.95 0.000477761 -8.09355
1164 1 6.74884 113.044 2.71038 180.95 0.000496115 -8.0948
989 1 12.1421 112.1 2.70424 180.95 7.09915e-05 -8.09634
994 1 10.7908 113.068 0.405456 180.95 5.07308e-05 -7.15182
841 1 13.4885 114.013 0.413536 180.95 0.000311637 -7.15099
990 1 14.8379 113.045 2.71161 180.95 8.91939e-05 -8.09575
1017 1 2.6977 115.904 0.428978 180.95 0.000147403 -7.15071
1035 1 0 117.796 0.443486 180.95 0.000297627 -7.15032
1201 1 0 114.959 0.421376 180.95 0.000337481 -7.15016
1202 1 1.35032 116.831 2.7424 180.95 0.000241519 -8.09541
1018 1 5.39541 116.85 0.436347 180.95 0.000111574 -7.1503
1019 1 4.04579 117.774 2.74889 180.95 0.000295099 -8.09493
1182 1 4.04733 114.938 2.73191 180.95 0.000338407 -8.09529
849 1 8.09311 117.796 0.443486 180.95 0.000600665 -7.15052
1004 1 8.09311 114.959 0.421376 180.95 0.000391787 -7.15048
1005 1 6.74714 115.879 2.73388 180.95 0.000190617 -8.09573
1006 1 9.44441 116.826 2.74509 180.95 0.000192988 -8.09538
843 1 10.7908 115.904 0.428978 180.95 0.000307927 -7.1492
845 1 12.1397 117.777 2.75201 180.95 0.00019833 -8.09593
996 1 12.1391 114.933 2.72855 180.95 0.000276693 -8.09866
842 1 14.8376 115.879 2.73707 180.95 0.000198347 -8.09654
844 1 13.4885 116.85 0.436347 180.95 0.000206245 -7.15045
1036 1 2.6977 118.742 0.4504 180.95 0.000294724 -7.15045
1037 1 1.34912 119.661 2.76349 180.95 7.28795e-05 -8.09506
1057 1 0 120.635 0.463575 180.95 0.000335086 -7.15007
859 1 5.39541 119.688 0.457094 180.95 0.000242827 -7.14967