ITEM: TIMESTEP
60
ITEM: NUMBER OF ATOMS
8214
ITEM: BOX BOUNDS pp ff ff
0.0000000000000000e+00 1.6186228220311300e+01
0.0000000000000000e+00 1.7368087604622701e+02
0.0000000000000000e+00 7.0088424151210802e+01
ITEM: ATOMS id type x y z mass c_KE c_PE
3885 1 2.6977 2.1549 0.638693 180.95 0.00039551 -5.71891
4037 1 0 1.20341 0.640411 180.95 0.000129077 -5.08284
4018 1 4.04656 1.22224 2.98048 180.95 4.38013e-05 -5.6947
3872 1 8.09311 1.20341 0.640411 180.95 0.000103356 -5.08284
3873 1 6.73805 2.01839 2.86177 180.95 7.89666e-05 -6.29775
3722 1 10.7908 2.1549 0.638693 180.95 0.000297286 -5.71891
3865 1 12.1397 1.22224 2.98048 180.95 0.000306249 -5.6947
3721 1 14.8312 2.01839 2.86177 180.95 0.000159381 -6.29775
3903 1 0 4.05775 0.635169 180.95 0.000264032 -6.33939
3904 1 2.6977 5.00911 0.633363 180.95 0.000231597 -6.30594
3905 1 1.33388 5.82336 2.91023 180.95 0.000147752 -7.00127
4038 1 1.32993 2.84242 2.89187 180.95 4.2653e-05 -6.83707
3738 1 5.39541 5.96042 0.631525 180.95 0.000449959 -6.32728
3886 1 5.39541 3.10635 0.636946 180.95 0.000321207 -6.11844
3887 1 4.02398 3.93325 2.90959 180.95 0.000403394 -6.93636
3728 1 8.09311 4.05775 0.635169 180.95 0.0002362 -6.33939
3730 1 9.42699 5.82336 2.91023 180.95 0.000333209 -7.00127
3874 1 9.42305 2.84242 2.89187 180.95 0.000308791 -6.83707
3888 1 6.72845 4.87703 2.90955 180.95 0.00036633 -6.9428
3724 1 12.1171 3.93325 2.90959 180.95 0.000256611 -6.93636
3729 1 10.7908 5.00911 0.633363 180.95 0.000280706 -6.30594
3577 1 13.4885 5.96042 0.631525 180.95 0.000197046 -6.32728
3723 1 13.4885 3.10635 0.636946 180.95 0.000292759 -6.11844
3725 1 14.8216 4.87703 2.90955 180.95 0.000145236 -6.9428
3752 1 2.6977 7.86288 0.627752 180.95 0.000177616 -6.32216
3925 1 0 6.91168 0.629655 180.95 0.000289491 -6.32617
3926 1 1.33687 8.72862 2.90761 180.95 0.000219195 -6.98314
3753 1 5.39541 8.81404 0.625814 180.95 0.000233392 -6.32827
3906 1 4.03163 6.81968 2.91228 180.95 0.000118489 -6.97679
3739 1 8.09311 6.91168 0.629655 180.95 0.000281018 -6.32617
3740 1 6.7323 7.77178 2.90916 180.95 0.000445889 -6.97178
3741 1 9.42999 8.72862 2.90761 180.95 5.0425e-05 -6.98314
3579 1 10.7908 7.86288 0.627752 180.95 0.000213756 -6.32216
3731 1 12.1247 6.81968 2.91228 180.95 0.000420227 -6.97679
3578 1 14.8254 7.77178 2.90916 180.95 0.000293691 -6.97178
3580 1 13.4885 8.81404 0.625814 180.95 0.000145454 -6.32827
3770 1 0 9.76515 0.623841 180.95 8.09256e-05 -6.32811
3771 1 2.6977 10.7162 0.621831 180.95 0.000141585 -6.32763
3772 1 1.33868 11.608 2.90252 180.95 0.000218728 -6.97573
3595 1 5.39541 11.6672 0.619783 180.95 5.61528e-05 -6.32948
3754 1 4.03505 9.69617 2.90651 180.95 0.000129921 -6.97344
3585 1 8.09311 9.76515 0.623841 180.95 0.000294989 -6.32811
3587 1 9.4318 11.608 2.90252 180.95 0.000247338 -6.97573
3755 1 6.73382 10.6513 2.90429 180.95 0.000292328 -6.97339
3581 1 12.1282 9.69617 2.90651 180.95 0.000249387 -6.97344
3586 1 10.7908 10.7162 0.621831 180.95 0.00021291 -6.32763
3433 1 13.4885 11.6672 0.619783 180.95 0.000468433 -6.32948
3582 1 14.8269 10.6513 2.90429 180.95 0.000143703 -6.97339
3609 1 2.6977 13.569 0.615569 180.95 0.000334607 -6.32971
3627 1 0 15.4706 0.611186 180.95 0.000311462 -6.33051
3792 1 0 12.6181 0.617696 180.95 0.000251734 -6.32959
3793 1 1.33994 14.4764 2.89664 180.95 0.000149278 -6.97289
3610 1 5.39541 14.5198 0.613399 180.95 0.000124998 -6.33035
3611 1 4.03795 15.4315 2.89456 180.95 0.000287921 -6.97181
3773 1 4.0368 12.5665 2.90073 180.95 0.000223846 -6.97259
3441 1 8.09311 15.4706 0.611186 180.95 4.46099e-06 -6.33051
3596 1 8.09311 12.6181 0.617696 180.95 0.000305035 -6.32959
3597 1 6.73505 13.5213 2.89864 180.95 0.000252836 -6.97264
3598 1 9.43305 14.4764 2.89664 180.95 0.00039052 -6.97289
3435 1 10.7908 13.569 0.615569 180.95 0.000214986 -6.32971
3437 1 12.1311 15.4315 2.89456 180.95 0.000451065 -6.97181
3588 1 12.1299 12.5665 2.90073 180.95 0.000133673 -6.97259
3434 1 14.8282 13.5213 2.89864 180.95 0.000337397 -6.97264
3436 1 13.4885 14.5198 0.613399 180.95 0.000188259 -6.33035
3628 1 2.6977 16.4213 0.608928 180.95 9.32551e-05 -6.33066
3629 1 1.34083 17.3391 2.89017 180.95 0.000129102 -6.97159
3649 1 0 18.3224 0.604271 180.95 0.000241599 -6.33105
3451 1 5.39541 17.3719 0.606624 180.95 0.000236059 -6.33093
3630 1 4.03878 18.2926 2.8879 180.95 0.000226296 -6.97115
3443 1 9.43395 17.3391 2.89017 180.95 0.000317259 -6.97159
3452 1 8.09311 18.3224 0.604271 180.95 0.000445979 -6.33105
3612 1 6.73599 16.3854 2.89237 180.95 0.000299385 -6.97172
3442 1 10.7908 16.4213 0.608928 180.95 0.000195383 -6.33066
3444 1 12.1319 18.2926 2.8879 180.95 0.000278505 -6.97115
3289 1 13.4885 17.3719 0.606624 180.95 0.000486276 -6.33093
3438 1 14.8291 16.3854 2.89237 180.95 0.00024972 -6.97172
3465 1 2.6977 19.2729 0.601868 180.95 2.20613e-05 -6.33117
3483 1 0 21.1737 0.596904 180.95 0.000166882 -6.33139
3650 1 1.34149 20.1983 2.88318 180.95 0.000179267 -6.97083
3466 1 5.39541 20.2233 0.599413 180.95 0.000228799 -6.3313
3467 1 4.03937 21.1508 2.88074 180.95 0.000288176 -6.9706
3297 1 8.09311 21.1737 0.596904 180.95 0.000108556 -6.33139
3453 1 6.73671 19.2455 2.88556 180.95 0.000414126 -6.971
3454 1 9.4346 20.1983 2.88318 180.95 0.000236439 -6.97083
3291 1 10.7908 19.2729 0.601868 180.95 0.00023241 -6.33117
3293 1 12.1325 21.1508 2.88074 180.95 5.98518e-05 -6.9706
3290 1 14.8298 19.2455 2.88556 180.95 0.000518117 -6.971
3292 1 13.4885 20.2233 0.599413 180.95 0.000142079 -6.3313
3484 1 2.6977 22.1239 0.59434 180.95 0.000152609 -6.33147
3485 1 1.34197 23.055 2.87568 180.95 0.000351643 -6.97028
3505 1 0 24.0242 0.589034 180.95 0.000193412 -6.33161
3307 1 5.39541 23.0741 0.591717 180.95 0.000409936 -6.33155
3486 1 4.03979 24.0068 2.87306 180.95 0.000117075 -6.97011
3299 1 9.43508 23.055 2.87568 180.95 0.000361343 -6.97028
3308 1 8.09311 24.0242 0.589034 180.95 0.000260883 -6.33161
3468 1 6.73724 22.103 2.87824 180.95 0.000267815 -6.97045
3298 1 10.7908 22.1239 0.59434 180.95 0.000113832 -6.33147
3300 1 12.1329 24.0068 2.87306 180.95 0.000164102 -6.97011
3145 1 13.4885 23.0741 0.591717 180.95 0.000186011 -6.33155
3294 1 14.8304 22.103 2.87824 180.95 9.95119e-06 -6.97045
3321 1 2.6977 24.9742 0.586288 180.95 0.000428406 -6.33167
3339 1 0 26.874 0.580599 180.95 0.000368628 -6.33176
3340 1 2.6977 27.8238 0.577651 180.95 0.00057998 -6.33179
3506 1 1.34229 25.9098 2.86763 180.95 0.00023661 -6.96982
3322 1 5.39541 25.9242 0.583478 180.95 0.00012525 -6.33172
3323 1 4.04007 26.861 2.8648 180.95 0.000357644 -6.96968
3153 1 8.09311 26.874 0.580599 180.95 0.00033862 -6.33176
3309 1 6.73761 24.9584 2.87038 180.95 0.000296424 -6.96997
3310 1 9.43541 25.9098 2.86762 180.95 0.000108674 -6.96982
3324 1 6.73785 27.8121 2.86192 180.95 0.000260783 -6.96954
3147 1 10.7908 24.9742 0.586288 180.95 0.000415532 -6.33167
3149 1 12.1332 26.861 2.8648 180.95 0.000283852 -6.96968
3154 1 10.7908 27.8238 0.577651 180.95 0.000220963 -6.33179
3146 1 14.8307 24.9584 2.87038 180.95 8.82419e-05 -6.96997
3148 1 13.4885 25.9242 0.583478 180.95 0.00034676 -6.33172
3150 1 14.831 27.8121 2.86192 180.95 0.000247002 -6.96954
3177 1 2.6977 30.6725 0.568353 180.95 0.000155636 -6.33188
3341 1 1.34249 28.7629 2.85896 180.95 0.000249178 -6.96939
3361 1 0 29.723 0.571531 180.95 0.000336422 -6.33186
3163 1 5.39541 28.7734 0.574629 180.95 0.000165349 -6.33183
3342 1 4.04023 29.7136 2.85592 180.95 7.62589e-06 -6.96925
3155 1 9.43561 28.7629 2.85896 180.95 0.000412576 -6.96939
3164 1 8.09311 29.723 0.571531 180.95 0.00018996 -6.33186
3165 1 6.73796 30.6642 2.85282 180.95 0.000223241 -6.9691
3003 1 10.7908 30.6725 0.568353 180.95 6.27288e-05 -6.33188
3156 1 12.1333 29.7136 2.85592 180.95 0.00022774 -6.96925
3001 1 13.4885 28.7734 0.574629 180.95 0.000315692 -6.33183
3002 1 14.8311 30.6642 2.85282 180.95 0.000124181 -6.9691
3195 1 0 32.5711 0.561747 180.95 8.83672e-05 -6.33192
3196 1 2.6977 33.5203 0.558311 180.95 0.000275279 -6.33194
3362 1 1.34256 31.6145 2.84963 180.95 0.000284499 -6.96897
3178 1 5.39541 31.6218 0.565093 180.95 0.000408283 -6.33191
3179 1 4.04028 32.5647 2.84635 180.95 0.000175451 -6.96882
3009 1 8.09311 32.5711 0.561747 180.95 0.000193926 -6.33192
3166 1 9.43568 31.6145 2.84963 180.95 9.23106e-05 -6.96897
3180 1 6.73798 33.5148 2.84299 180.95 0.000282758 -6.96868
3005 1 12.1334 32.5647 2.84635 180.95 0.00037011 -6.96882
3010 1 10.7908 33.5203 0.558311 180.95 6.84524e-05 -6.33194
3004 1 13.4885 31.6218 0.565093 180.95 0.000477512 -6.33191
3006 1 14.8311 33.5148 2.84299 180.95 0.000217074 -6.96868
3033 1 2.6977 36.3671 0.547428 180.95 0.000374062 -6.33197
3197 1 1.34255 34.4646 2.83955 180.95 0.000293954 -6.96855
3217 1 0 35.4183 0.551156 180.95 7.33724e-05 -6.33196
3019 1 5.39541 34.4693 0.554782 180.95 0.00025109 -6.33195
3198 1 4.04023 35.4144 2.83601 180.95 0.000257439 -6.96842
3011 1 9.43567 34.4646 2.83955 180.95 9.13828e-05 -6.96855
3020 1 8.09311 35.4183 0.551156 180.95 0.000242168 -6.33196
3021 1 6.7379 36.3639 2.83238 180.95 2.64407e-05 -6.96829
2859 1 10.7908 36.3671 0.547428 180.95 5.37736e-05 -6.33197
3012 1 12.1333 35.4144 2.83601 180.95 0.000413864 -6.96842
2857 1 13.4885 34.4693 0.554782 180.95 0.000246137 -6.33195
2858 1 14.831 36.3639 2.83238 180.95 0.000215747 -6.96829
3051 1 0 38.2644 0.539651 180.95 0.000233222 -6.33197
3052 1 2.6977 39.2128 0.535593 180.95 0.000389993 -6.33197
3053 1 1.34224 40.1607 2.81678 180.95 0.000224766 -6.96777
3218 1 1.34243 37.3133 2.82864 180.95 0.000257588 -6.96817
2875 1 5.39541 40.1611 0.531414 180.95 0.000296781 -6.33197
3034 1 5.39541 37.3158 0.543595 180.95 0.000347595 -6.33197
3035 1 4.04009 38.2626 2.8248 180.95 0.000253926 -6.96804
2865 1 8.09311 38.2644 0.539651 180.95 0.000265441 -6.33197
2867 1 9.43535 40.1607 2.81678 180.95 0.00021775 -6.96777
3022 1 9.43555 37.3133 2.82864 180.95 0.000106738 -6.96817
3036 1 6.73773 39.2117 2.82085 180.95 0.000199771 -6.96791
2861 1 12.1332 38.2626 2.8248 180.95 0.000409796 -6.96804
2866 1 10.7908 39.2128 0.535593 180.95 0.000250773 -6.33197
2713 1 13.4885 40.1611 0.531414 180.95 0.000157488 -6.33197
2860 1 13.4885 37.3158 0.543595 180.95 0.000214847 -6.33197
2862 1 14.8308 39.2117 2.82085 180.95 0.000274136 -6.96791
2889 1 2.6977 42.0574 0.522676 180.95 0.000386882 -6.33197
3073 1 0 41.1093 0.52711 180.95 0.000380978 -6.33197
3074 1 1.34197 43.0066 2.80382 180.95 0.000152623 -6.96736
2890 1 5.39541 43.0053 0.518106 180.95 0.000244813 -6.33196
3054 1 4.03986 41.1095 2.81259 180.95 0.000194798 -6.96764
2876 1 8.09311 41.1093 0.52711 180.95 0.000245655 -6.33197
2877 1 6.73747 42.0581 2.80829 180.95 0.000380585 -6.96751
2878 1 9.43509 43.0066 2.80382 180.95 0.000268326 -6.96736
2715 1 10.7908 42.0574 0.522676 180.95 0.000389545 -6.33197
2868 1 12.133 41.1095 2.81259 180.95 0.000212974 -6.96764
2714 1 14.8306 42.0581 2.80829 180.95 0.000298917 -6.96751
2716 1 13.4885 43.0053 0.518106 180.95 0.000403909 -6.33196
2907 1 0 43.9531 0.513395 180.95 0.000251666 -6.33196
2908 1 2.6977 44.9008 0.508535 180.95 0.000257074 -6.33195
2909 1 1.34165 45.851 2.78961 180.95 0.000165295 -6.96693
2731 1 5.39541 45.8483 0.503522 180.95 0.000331673 -6.33194
2891 1 4.03957 43.9549 2.79923 180.95 0.000137541 -6.96722
2721 1 8.09311 43.9531 0.513395 180.95 0.000471782 -6.33196
2723 1 9.43477 45.851 2.78961 180.95 0.000117726 -6.96693
2892 1 6.73716 44.903 2.79449 180.95 0.000373398 -6.96707
2717 1 12.1327 43.9549 2.79923 180.95 0.00017755 -6.96722
2722 1 10.7908 44.9008 0.508535 180.95 0.000307311 -6.33195
2569 1 13.4885 45.8483 0.503522 180.95 0.000579244 -6.33194
2718 1 14.8303 44.903 2.79449 180.95 0.000141962 -6.96707
2745 1 2.6977 47.7429 0.493009 180.95 0.000144799 -6.33192
2929 1 0 46.7957 0.498349 180.95 0.000198769 -6.33193
2930 1 1.34129 48.6939 2.77398 180.95 0.000271414 -6.96648
2746 1 5.39541 48.69 0.487496 180.95 0.00012696 -6.33191
2910 1 4.03924 46.7988 2.78456 180.95 0.000344601 -6.96679
2732 1 8.09311 46.7957 0.498349 180.95 0.000323758 -6.33193
2733 1 6.73683 47.7464 2.77934 180.95 0.000354372 -6.96662
2734 1 9.4344 48.6939 2.77398 180.95 0.000226881 -6.96648
2571 1 10.7908 47.7429 0.493009 180.95 0.000335137 -6.33192
2724 1 12.1324 46.7988 2.78456 180.95 0.00021571 -6.96679
2570 1 14.8299 47.7464 2.77934 180.95 0.000113558 -6.96662
2572 1 13.4885 48.69 0.487496 180.95 0.000165065 -6.33191
2763 1 0 49.6369 0.481802 180.95 0.000349252 -6.3319
2764 1 2.6977 50.5837 0.475922 180.95 0.000379907 -6.33188
2765 1 1.34087 51.5352 2.75672 180.95 0.000148175 -6.96603
2785 1 0 52.4768 0.463575 180.95 0.000117364 -6.33185
2587 1 5.39541 51.5303 0.469849 180.95 0.000149907 -6.33187
2747 1 4.03885 49.6412 2.76844 180.95 0.000166764 -6.96634
2766 1 4.03843 52.482 2.75056 180.95 0.000222279 -6.96587
2577 1 8.09311 49.6369 0.481802 180.95 0.00020663 -6.3319
2579 1 9.43399 51.5352 2.75672 180.95 0.000329364 -6.96603
2588 1 8.09311 52.4768 0.463575 180.95 0.000294836 -6.33185
2748 1 6.73643 50.5883 2.76267 180.95 0.000227712 -6.96618
2573 1 12.132 49.6412 2.76844 180.95 3.6149e-05 -6.96634
2578 1 10.7908 50.5837 0.475922 180.95 0.000299021 -6.33188
2580 1 12.1315 52.482 2.75056 180.95 0.000276075 -6.96587
2425 1 13.4885 51.5303 0.469849 180.95 0.000323374 -6.33187
2574 1 14.8295 50.5883 2.76267 180.95 0.000451709 -6.96618
2601 1 2.6977 53.4232 0.457094 180.95 0.00028263 -6.33183
2619 1 0 55.3155 0.443485 180.95 0.000217683 -6.33179
2786 1 1.34048 54.375 2.73756 180.95 0.000211053 -6.96554
2602 1 5.39541 54.3694 0.450399 180.95 0.000268458 -6.33181
2603 1 4.03807 55.3212 2.73071 180.95 0.000290858 -6.96535
2433 1 8.09311 55.3155 0.443485 180.95 0.000474224 -6.33179
2589 1 6.73603 53.4286 2.74417 180.95 0.000624854 -6.9657
2590 1 9.4336 54.375 2.73756 180.95 0.000455064 -6.96554
2427 1 10.7908 53.4232 0.457094 180.95 0.00012398 -6.33183
2429 1 12.1312 55.3212 2.73071 180.95 0.000281171 -6.96535
2426 1 14.8291 53.4286 2.74417 180.95 0.000482549 -6.9657
2428 1 13.4885 54.3694 0.450399 180.95 0.000104472 -6.33181
2620 1 2.6977 56.2614 0.436347 180.95 0.000180132 -6.33177
2621 1 1.34013 57.2133 2.7163 180.95 0.000326707 -6.96502
2641 1 0 58.1529 0.421375 180.95 0.000105354 -6.33172
2443 1 5.39541 57.2072 0.428978 180.95 0.000301169 -6.33174
2622 1 4.03775 58.1591 2.7087 180.95 0.000560369 -6.96483
2435 1 9.43325 57.2133 2.7163 180.95 0.000308148 -6.96502
2444 1 8.09311 58.1529 0.421375 180.95 0.00019645 -6.33172
2604 1 6.73566 56.2673 2.72363 180.95 0.000222632 -6.96519
2434 1 10.7908 56.2614 0.436347 180.95 0.000339713 -6.33177
2436 1 12.1309 58.1591 2.7087 180.95 0.000176623 -6.96483
2281 1 13.4885 57.2072 0.428978 180.95 9.81133e-06 -6.33174
2430 1 14.8288 56.2673 2.72363 180.95 4.61524e-05 -6.96519
2457 1 2.6977 59.0984 0.413535 180.95 0.000230341 -6.33172
2475 1 0 60.9893 0.397138 180.95 0.00015873 -6.33167
2476 1 2.6977 61.9346 0.388582 180.95 0.000552601 -6.33164
2642 1 1.33983 60.0503 2.69274 180.95 0.000288054 -6.96446
2458 1 5.39541 60.0439 0.405456 180.95 0.000191324 -6.33168
2459 1 4.03746 60.9957 2.68433 180.95 0.000225123 -6.96427
2289 1 8.09311 60.9893 0.397138 180.95 0.000613851 -6.33167
2445 1 6.73534 59.1048 2.70087 180.95 5.07007e-05 -6.96466
2446 1 9.43295 60.0503 2.69274 180.95 0.000284045 -6.96446
2460 1 6.7351 61.941 2.67566 180.95 0.000289911 -6.96409
2283 1 10.7908 59.0984 0.413535 180.95 1.97546e-05 -6.33172
2285 1 12.1306 60.9957 2.68433 180.95 0.000261629 -6.96427
2290 1 10.7908 61.9346 0.388582 180.95 0.000310978 -6.33164
2282 1 14.8285 59.1048 2.70087 180.95 0.000272873 -6.96466
2284 1 13.4885 60.0439 0.405456 180.95 0.00042093 -6.33168
2286 1 14.8282 61.941 2.67567 180.95 0.000126149 -6.96409
2313 1 2.6977 64.7702 0.361542 180.95 0.000273998 -6.33156
2477 1 1.33967 62.8863 2.66668 180.95 0.000642284 -6.96388
2497 1 0 63.825 0.370776 180.95 0.000365579 -6.33158
2299 1 5.39541 62.8798 0.379792 180.95 0.000180275 -6.33161
2478 1 4.03742 63.8314 2.65745 180.95 0.000167649 -6.9637
2291 1 9.43279 62.8863 2.66668 180.95 0.000352602 -6.96388
2300 1 8.09311 63.825 0.370776 180.95 0.000212114 -6.33158
2301 1 6.73517 64.7765 2.64792 180.95 3.64441e-05 -6.9635
2139 1 10.7908 64.7702 0.361542 180.95 8.21399e-05 -6.33156
2292 1 12.1305 63.8314 2.65745 180.95 5.93831e-05 -6.9637
2137 1 13.4885 62.8798 0.379792 180.95 0.000136277 -6.33161
2138 1 14.8283 64.7765 2.64792 180.95 0.000353332 -6.9635
2331 1 0 66.6606 0.342479 180.95 6.2357e-05 -6.3315
2332 1 2.6977 67.6058 0.33269 180.95 0.000216838 -6.3315
2498 1 1.3399 65.7215 2.63809 180.95 0.000326444 -6.96326
2314 1 5.39541 65.7154 0.352104 180.95 0.000187495 -6.33153
2315 1 4.03781 66.6664 2.62807 180.95 0.000144714 -6.96306
2145 1 8.09311 66.6606 0.342479 180.95 0.0001958 -6.3315
2302 1 9.43301 65.7215 2.63809 180.95 0.000133493 -6.96326
2316 1 6.73576 67.6115 2.61775 180.95 0.000237468 -6.96278
2141 1 12.1309 66.6664 2.62807 180.95 6.63224e-05 -6.96306
2146 1 10.7908 67.6058 0.33269 180.95 0.000344039 -6.3315
2140 1 13.4885 65.7154 0.352104 180.95 0.000219506 -6.33153
2142 1 14.8289 67.6115 2.61775 180.95 0.000252736 -6.96278
2169 1 2.6977 70.4421 0.302635 180.95 0.000376303 -6.33143
2333 1 1.34063 68.5565 2.60717 180.95 4.36434e-05 -6.96251
2353 1 0 69.4965 0.312732 180.95 0.000307855 -6.33144
2155 1 5.39541 68.5511 0.322764 180.95 0.000130783 -6.33147
2334 1 4.03863 69.5016 2.59639 180.95 0.000399447 -6.96221
2147 1 9.43374 68.5565 2.60717 180.95 1.4061e-05 -6.96251
2156 1 8.09311 69.4965 0.312732 180.95 0.000142566 -6.33144
2157 1 6.7367 70.4467 2.5855 180.95 0.000333242 -6.9619
1995 1 10.7908 70.4421 0.302635 180.95 0.000407056 -6.33143
2148 1 12.1317 69.5016 2.59639 180.95 0.000139901 -6.96221
1993 1 13.4885 68.5511 0.322764 180.95 0.000252473 -6.33147
1994 1 14.8298 70.4467 2.5855 180.95 0.000550737 -6.9619
2187 1 0 72.3337 0.282433 180.95 0.000410413 -6.33137
2188 1 2.6977 73.2799 0.27244 180.95 0.000274648 -6.33133
2189 1 1.34328 74.2291 2.54107 180.95 0.00033437 -6.96041
2354 1 1.34171 71.3921 2.57445 180.95 0.000155538 -6.96154
2011 1 5.39541 74.2263 0.262604 180.95 0.000488226 -6.33132
2170 1 5.39541 71.3878 0.292518 180.95 0.000272424 -6.3314
2171 1 4.03991 72.3376 2.5633 180.95 9.87684e-05 -6.96119
2001 1 8.09311 72.3337 0.282433 180.95 0.000300284 -6.33137
2003 1 9.4364 74.2291 2.54107 180.95 0.00021932 -6.96041
2158 1 9.43483 71.3921 2.57445 180.95 7.61962e-05 -6.96154
2172 1 6.73812 73.2832 2.55219 180.95 0.000279031 -6.96085
1997 1 12.133 72.3376 2.5633 180.95 0.000309616 -6.96119
2002 1 10.7908 73.2799 0.27244 180.95 0.000300115 -6.33133
1849 1 13.4885 74.2263 0.262604 180.95 0.000505958 -6.33132
1996 1 13.4885 71.3878 0.292518 180.95 0.000247774 -6.3314
1998 1 14.8312 73.2832 2.55219 180.95 0.000342727 -6.96085
2025 1 2.6977 76.12 0.243702 180.95 0.000206162 -6.33125
2209 1 0 75.173 0.252999 180.95 0.000373559 -6.33123
2210 1 1.34515 77.0686 2.50917 180.95 0.000292528 -6.95917
2026 1 5.39541 77.0672 0.234798 180.95 9.18856e-05 -6.33118
2190 1 4.04159 75.1753 2.53016 180.95 0.000359493 -6.96004
2012 1 8.09311 75.173 0.252999 180.95 0.000313372 -6.33123
2013 1 6.73996 76.1217 2.51936 180.95 0.000478656 -6.95953
2014 1 9.43827 77.0686 2.50917 180.95 0.000282978 -6.95917
1851 1 10.7908 76.12 0.243702 180.95 0.000311483 -6.33125
2004 1 12.1347 75.1753 2.53016 180.95 0.00040627 -6.96004
1850 1 14.8331 76.1217 2.51936 180.95 0.000259113 -6.95953
1852 1 13.4885 77.0672 0.234798 180.95 0.000186138 -6.33118
2043 1 0 78.0149 0.226374 180.95 0.000362107 -6.33119
2044 1 2.6977 78.9628 0.21852 180.95 0.000370508 -6.33108
2045 1 1.34682 79.9112 2.48122 180.95 0.000367474 -6.95772
1867 1 5.39541 79.9111 0.211326 180.95 0.00022582 -6.33112
2027 1 4.04342 78.0158 2.49914 180.95 0.000211196 -6.95859
1857 1 8.09311 78.0149 0.226374 180.95 0.000197752 -6.33119
1859 1 9.43993 79.9112 2.48122 180.95 0.00034377 -6.95772
2028 1 6.7417 78.9633 2.48989 180.95 0.00027309 -6.95828
1853 1 12.1365 78.0158 2.49914 180.95 0.00016045 -6.95859
1858 1 10.7908 78.9628 0.21852 180.95 8.83075e-05 -6.33108
1705 1 13.4885 79.9111 0.211326 180.95 0.000231592 -6.33112
1854 1 14.8348 78.9633 2.48989 180.95 0.000266775 -6.95828
1881 1 2.6977 81.8085 0.199261 180.95 0.000212945 -6.33106
1899 1 0 83.707 0.190812 180.95 5.13631e-05 -6.33105
2065 1 0 80.8597 0.204878 180.95 0.000326583 -6.33105
2066 1 1.348 82.757 2.46103 180.95 0.000317229 -6.95679
1882 1 5.39541 82.7576 0.19455 180.95 0.000283579 -6.33102
1883 1 4.04598 83.7061 2.45647 180.95 0.000690764 -6.95647
2046 1 4.04497 80.8595 2.47357 180.95 9.60256e-05 -6.95741
1713 1 8.09311 83.707 0.190812 180.95 0.000330047 -6.33105
1868 1 8.09311 80.8597 0.204878 180.95 0.000236423 -6.33105
1869 1 6.74306 81.8081 2.46669 180.95 0.000314194 -6.957
1870 1 9.44112 82.757 2.46103 180.95 8.65417e-05 -6.95679
1707 1 10.7908 81.8085 0.199261 180.95 0.000200887 -6.33106
1709 1 12.1391 83.7061 2.45647 180.95 0.000310396 -6.95647
1860 1 12.1381 80.8595 2.47357 180.95 4.55685e-05 -6.95741
1706 1 14.8362 81.8081 2.46669 180.95 0.000156908 -6.957
1708 1 13.4885 82.7576 0.19455 180.95 0.000386026 -6.33102
1900 1 2.6977 84.6565 0.188101 180.95 0.000483727 -6.33101
1901 1 1.34875 85.6049 2.45113 180.95 0.000264146 -6.95615
1921 1 0 86.5558 0.185908 180.95 0.000258919 -6.33101
1723 1 5.39541 85.6061 0.186458 180.95 9.31739e-05 -6.33106
1902 1 4.04658 86.5545 2.45057 180.95 0.000382243 -6.95623
1715 1 9.44186 85.6049 2.45113 180.95 0.000275076 -6.95615
1724 1 8.09311 86.5558 0.185908 180.95 0.000470739 -6.33101
1884 1 6.74396 84.6555 2.4532 180.95 0.000174402 -6.95635
1714 1 10.7908 84.6565 0.188101 180.95 0.000257451 -6.33101
1716 1 12.1397 86.5545 2.45057 180.95 8.70993e-05 -6.95623
1561 1 13.4885 85.6061 0.186458 180.95 0.000350205 -6.33106
1710 1 14.8371 84.6555 2.4532 180.95 0.000285724 -6.95635
1737 1 2.6977 87.5054 0.186458 180.95 0.000615608 -6.33106
1755 1 0 89.4046 0.190812 180.95 0.000231863 -6.33109
1922 1 1.34929 88.4534 2.45326 180.95 5.11574e-05 -6.95637
1738 1 5.39541 88.4551 0.188102 180.95 0.000200122 -6.33102
1739 1 4.04721 89.4028 2.45646 180.95 0.000247199 -6.95647
1569 1 8.09311 89.4046 0.190812 180.95 0.000115262 -6.33109
1725 1 6.74448 87.504 2.45111 180.95 0.000126211 -6.95616
1726 1 9.44241 88.4534 2.45326 180.95 0.000186449 -6.95637
1563 1 10.7908 87.5054 0.186458 180.95 0.000259299 -6.33106
1565 1 12.1403 89.4028 2.45646 180.95 0.000112658 -6.95647
1562 1 14.8376 87.504 2.45111 180.95 0.000344532 -6.95616
1564 1 13.4885 88.4551 0.188102 180.95 0.000203404 -6.33102
1756 1 2.6977 90.3539 0.194551 180.95 0.000276134 -6.33104
1757 1 1.35012 91.3007 2.46669 180.95 0.00033786 -6.957
1777 1 0 92.2519 0.204879 180.95 0.000167177 -6.3311
1579 1 5.39541 91.303 0.199261 180.95 0.000255318 -6.33112
1758 1 4.0482 92.2493 2.47358 180.95 0.000435291 -6.95743
1571 1 9.44324 91.3007 2.46669 180.95 0.000312583 -6.957
1580 1 8.09311 92.2519 0.204879 180.95 0.00030539 -6.3311
1740 1 6.7452 90.3519 2.46109 180.95 0.000141259 -6.95683
1570 1 10.7908 90.3539 0.194551 180.95 0.000130476 -6.33104
1572 1 12.1413 92.2493 2.47358 180.95 0.000527592 -6.95743
1417 1 13.4885 91.303 0.199261 180.95 0.000294024 -6.33112
1566 1 14.8383 90.3519 2.46109 180.95 0.000507501 -6.95683
1593 1 2.6977 93.2005 0.211326 180.95 0.000169632 -6.33117
1611 1 0 95.0967 0.226375 180.95 0.000443503 -6.33125
1612 1 2.6977 96.0443 0.234799 180.95 0.000162772 -6.33123
1778 1 1.35143 94.1453 2.48989 180.95 0.000404443 -6.95825
1594 1 5.39541 94.1487 0.218521 180.95 0.000234229 -6.33115
1595 1 4.04965 95.0928 2.49912 180.95 5.69506e-05 -6.95861
1425 1 8.09311 95.0967 0.226375 180.95 0.000284977 -6.33125
1581 1 6.74634 93.1975 2.48121 180.95 0.000423978 -6.95773
1582 1 9.44455 94.1453 2.48989 180.95 0.000437969 -6.95825
1596 1 6.74794 96.0399 2.50908 180.95 0.000289036 -6.95914
1419 1 10.7908 93.2005 0.211326 180.95 0.000188302 -6.33117
1421 1 12.1428 95.0928 2.49912 180.95 0.000398291 -6.95861
1426 1 10.7908 96.0443 0.234799 180.95 0.000465534 -6.33123
1418 1 14.8395 93.1975 2.48121 180.95 0.000156479 -6.95773
1420 1 13.4885 94.1487 0.218521 180.95 0.000334893 -6.33115
1422 1 14.8411 96.0399 2.50908 180.95 0.000148182 -6.95914
1449 1 2.6977 98.8853 0.262605 180.95 0.000333387 -6.33139
1613 1 1.35315 96.9866 2.51933 180.95 0.0003053 -6.9595
1633 1 0 97.9386 0.252999 180.95 0.000221601 -6.33132
1435 1 5.39541 96.9916 0.243703 180.95 0.000237786 -6.33131
1614 1 4.05147 97.933 2.53008 180.95 8.23982e-05 -6.95998
1427 1 9.44627 96.9866 2.51933 180.95 0.000230103 -6.9595
1436 1 8.09311 97.9386 0.252999 180.95 0.000110399 -6.33132
1437 1 6.74972 98.8791 2.54091 180.95 0.00041261 -6.96031
1275 1 10.7908 98.8853 0.262605 180.95 0.000284885 -6.33139
1428 1 12.1446 97.933 2.53008 180.95 0.000343912 -6.95998
1273 1 13.4885 96.9916 0.243703 180.95 0.000210122 -6.33131
1274 1 14.8428 98.8791 2.54091 180.95 0.000331596 -6.96031
1467 1 0 100.778 0.282434 180.95 0.000562891 -6.33145
1468 1 2.6977 101.724 0.292519 180.95 0.000449711 -6.33147
1634 1 1.35485 99.8249 2.55201 180.95 0.000267684 -6.96073
1450 1 5.39541 99.8317 0.272441 180.95 0.000541209 -6.3314
1451 1 4.05303 100.771 2.56306 180.95 0.000404941 -6.96106
1281 1 8.09311 100.778 0.282434 180.95 0.000513733 -6.33145
1438 1 9.44796 99.8249 2.55201 180.95 5.05203e-05 -6.96073
1452 1 6.75122 101.716 2.5742 180.95 0.000104106 -6.96141
1277 1 12.1461 100.771 2.56306 180.95 9.79322e-05 -6.96106
1282 1 10.7908 101.724 0.292519 180.95 0.000292185 -6.33147
1276 1 13.4885 99.8317 0.272441 180.95 0.000273866 -6.3314
1278 1 14.8443 101.716 2.5742 180.95 0.000425037 -6.96141
1305 1 2.6977 104.56 0.322764 180.95 9.44409e-05 -6.33151
1469 1 1.35616 102.661 2.58519 180.95 0.000127434 -6.96173
1489 1 0 103.615 0.312733 180.95 0.000344966 -6.33151
1291 1 5.39541 102.669 0.302636 180.95 0.000452698 -6.3315
1470 1 4.05418 103.606 2.59603 180.95 0.000257542 -6.96198
1283 1 9.44928 102.661 2.58519 180.95 0.000162932 -6.96173
1292 1 8.09311 103.615 0.312733 180.95 0.000119877 -6.33151
1293 1 6.75224 104.551 2.60679 180.95 0.000310064 -6.96232
1131 1 10.7908 104.56 0.322764 180.95 0.000555121 -6.33151
1284 1 12.1473 103.606 2.59603 180.95 8.74076e-05 -6.96199
1129 1 13.4885 102.669 0.302636 180.95 8.00288e-05 -6.3315
1130 1 14.8453 104.551 2.60679 180.95 0.00028687 -6.96232
1323 1 0 106.451 0.34248 180.95 0.000228247 -6.33155
1324 1 2.6977 107.396 0.352105 180.95 0.000516891 -6.33161
1325 1 1.35752 108.331 2.64732 180.95 3.50733e-05 -6.96311
1490 1 1.35708 105.496 2.61724 180.95 0.000386715 -6.96252
1147 1 5.39541 108.341 0.361543 180.95 0.000273065 -6.33162
1306 1 5.39541 105.506 0.332691 180.95 0.000410535 -6.33156
1307 1 4.05502 106.441 2.62756 180.95 0.000106468 -6.96273
1137 1 8.09311 106.451 0.34248 180.95 0.00042696 -6.33156
1139 1 9.45063 108.331 2.64732 180.95 0.000312315 -6.96311
1294 1 9.4502 105.496 2.61724 180.95 0.000504131 -6.96252
1308 1 6.75284 107.386 2.63757 180.95 0.000238277 -6.96294
1133 1 12.1481 106.441 2.62755 180.95 7.65818e-05 -6.96273
1138 1 10.7908 107.396 0.352105 180.95 0.000256498 -6.3316
985 1 13.4885 108.341 0.361543 180.95 0.0001717 -6.33163
1132 1 13.4885 105.506 0.332691 180.95 0.000655086 -6.33156
1134 1 14.846 107.386 2.63757 180.95 0.000121708 -6.96294
1161 1 2.6977 110.232 0.379793 180.95 0.000111855 -6.33169
1345 1 0 109.287 0.370777 180.95 0.000290492 -6.33165
1346 1 1.35748 111.166 2.67494 180.95 0.000140484 -6.96364
1162 1 5.39541 111.177 0.388582 180.95 0.000298173 -6.33169
1326 1 4.05529 109.276 2.65683 180.95 0.000279084 -6.96331
1148 1 8.09311 109.287 0.370777 180.95 7.02524e-05 -6.33165
1149 1 6.75296 110.221 2.66603 180.95 0.000301991 -6.96349
1150 1 9.45059 111.166 2.67494 180.95 0.000202547 -6.96365
987 1 10.7908 110.232 0.379793 180.95 0.000166139 -6.33168
1140 1 12.1484 109.276 2.65684 180.95 0.000135962 -6.9633
986 1 14.8461 110.221 2.66604 180.95 0.000196428 -6.9635
988 1 13.4885 111.177 0.388582 180.95 0.000452499 -6.33169
1179 1 0 112.122 0.397138 180.95 0.000348036 -6.33172
1180 1 2.6977 113.068 0.405456 180.95 0.000715652 -6.33173
1181 1 1.35726 114.002 2.70001 180.95 0.000239948 -6.96416
1003 1 5.39541 114.013 0.413536 180.95 0.000573116 -6.33174
1163 1 4.05515 112.111 2.68357 180.95 0.000465914 -6.96384
993 1 8.09311 112.122 0.397138 180.95 0.000359962 -6.33171
995 1 9.45038 114.002 2.70001 180.95 0.000477761 -6.96416
1164 1 6.75276 113.057 2.69193 180.95 0.000496115 -6.964
989 1 12.1483 112.111 2.68358 180.95 7.09915e-05 -6.96384
994 1 10.7908 113.068 0.405456 180.95 5.07308e-05 -6.33175
841 1 13.4885 114.013 0.413536 180.95 0.000311637 -6.33174
990 1 14.8459 113.057 2.69193 180.95 8.91939e-05 -6.96401
1017 1 2.6977 115.904 0.428978 180.95 0.000147403 -6.33179
1035 1 0 117.796 0.443486 180.95 0.000297627 -6.33184
1201 1 0 114.959 0.421376 180.95 0.000337481 -6.33177
1202 1 1.35696 116.839 2.72268 180.95 0.000241519 -6.96462
1018 1 5.39541 116.85 0.436347 180.95 0.000111574 -6.33182
1019 1 4.0545 117.785 2.7297 180.95 0.000295099 -6.96475
1182 1 4.05487 114.947 2.70783 180.95 0.000338407 -6.96433
849 1 8.09311 117.796 0.443486 180.95 0.000600665 -6.33184
1004 1 8.09311 114.959 0.421376 180.95 0.000391787 -6.33176
1005 1 6.75248 115.893 2.71538 180.95 0.000190617 -6.96447
1006 1 9.45008 116.839 2.72268 180.95 0.000192988 -6.96461
843 1 10.7908 115.904 0.428978 180.95 0.000307927 -6.3318
845 1 12.1476 117.785 2.72971 180.95 0.00019833 -6.96475
996 1 12.148 114.947 2.70782 180.95 0.000276693 -6.96432
842 1 14.8456 115.893 2.71537 180.95 0.000198347 -6.96447
844 1 13.4885 116.85 0.436347 180.95 0.000206245 -6.33181
1036 1 2.6977 118.742 0.4504 180.95 0.000294724 -6.33187
1037 1 1.35651 119.677 2.74312 180.95 7.28795e-05 -6.96505
1057 1 0 120.635 0.463575 180.95 0.000335086 -6.33192
859 1 5.39541 119.688 0.457094 180.95 0.000242827 -6.33189
1038 1 4.05404 120.624 2.74946 180.95 0.000269704 -6.96517
851 1 9.44962 119.677 2.74313 180.95 0.000338501 -6.96505
860 1 8.09311 120.635 0.463575 180.95 0.00043125 -6.33192
1020 1 6.75204 118.731 2.73653 180.95 0.000124956 -6.96489
850 1 10.7908 118.742 0.4504 180.95 0.000449368 -6.33187
852 1 12.1472 120.624 2.74947 180.95 0.000396929 -6.96518
697 1 13.4885 119.688 0.457094 180.95 0.000103784 -6.33188
846 1 14.8452 118.731 2.73653 180.95 0.00027818 -6.96489
873 1 2.69771 121.581 0.469849 180.95 0.000359074 -6.33194