LAMMPS data file via write_data, version 27 Jun 2024, timestep = 37, units = metal

8214 atoms
2 atom types

0 16.1862282203113 xlo xhi
0 173.680876046227 ylo yhi
0 70.0884241512108 zlo zhi

Masses

1 180.95
2 180.95

Atoms # atomic

3885 1 2.6977047 2.1549038 0.63869267 0 0 0
4037 1 0 1.203413 0.64041115 0 0 0
4018 1 4.0465571 1.2222404 2.9804838 0 0 0
3872 1 8.0931141 1.203413 0.64041115 0 0 0
3873 1 6.754758083110266 2.367923130203899 2.9039364554240863 0 0 0
3722 1 10.790819 2.1549038 0.63869267 0 0 0
3865 1 12.139671 1.2222404 2.9804838 0 0 0
3721 1 14.847872185313738 2.367923061491297 2.9039365499706444 0 0 0
3903 1 0 4.0577526 0.63516942 0 0 0
3904 1 2.6977047 5.0091082 0.63336284 0 0 0
3905 1 1.3484046294532426 5.942760444456418 2.896305966746558 0 0 0
4038 1 1.3560682552384815 3.036198107588748 2.885154457386241 0 0 0
3738 1 5.3954094 5.9604162 0.63152503 0 0 0
3886 1 5.3954094 3.1063508 0.63694573 0 0 0
3887 1 4.038957274863922 4.013769387743884 2.8955861520150448 0 0 0
3728 1 8.0931141 4.0577526 0.63516942 0 0 0
3730 1 9.44151876305088 5.942760452547355 2.8963058830407387 0 0 0
3874 1 9.449182379801476 3.0361981297611584 2.8851543784995055 0 0 0
3888 1 6.738677536949582 5.046918152406839 2.9024768334986333 0 0 0
3724 1 12.132071462100434 4.013769366307454 2.8955861026953342 0 0 0
3729 1 10.790819 5.0091082 0.63336284 0 0 0
3577 1 13.488524 5.9604162 0.63152503 0 0 0
3723 1 13.488524 3.1063508 0.63694573 0 0 0
3725 1 14.83179171416772 5.0469181007201485 2.9024769346673787 0 0 0
3752 1 2.6977047 7.8628842 0.62775167 0 0 0
3925 1 0 6.9116753 0.62965499 0 0 0
3926 1 1.3471274090538154 8.816252102935554 2.8922750269032123 0 0 0
3753 1 5.3954094 8.8140415 0.625814 0 0 0
3906 1 4.042524798181535 6.911019676824673 2.8969905031216037 0 0 0
3739 1 8.0931141 6.9116753 0.62965499 0 0 0
3740 1 6.741716188140052 7.877793883273202 2.8957923287484877 0 0 0
3741 1 9.440241543345547 8.816252100924554 2.8922749423109853 0 0 0
3579 1 10.790819 7.8628842 0.62775167 0 0 0
3731 1 12.135639000565492 6.911019645111742 2.8969904511743962 0 0 0
3578 1 14.834830366297902 7.877793845839517 2.8957924316827266 0 0 0
3580 1 13.488524 8.8140415 0.625814 0 0 0
3770 1 0 9.7651458 0.62384083 0 0 0
3771 1 2.6977047 10.716196 0.62183099 0 0 0
3772 1 1.3467268173605782 11.676627035214608 2.8862770458390075 0 0 0
3595 1 5.3954094 11.667189 0.61978323 0 0 0
3754 1 4.0439552728972386 9.773181508928163 2.890764000941046 0 0 0
3585 1 8.0931141 9.7651458 0.62384083 0 0 0
3587 1 9.439840951532654 11.676627028687461 2.8862769610861934 0 0 0
3755 1 6.742010235996627 10.727977892516229 2.888672422526808 0 0 0
3581 1 12.137069474175401 9.773181473614772 2.890763948553245 0 0 0
3586 1 10.790819 10.716196 0.62183099 0 0 0
3433 1 13.488524 11.667189 0.61978323 0 0 0
3582 1 14.835124412824468 10.727977861186485 2.8886725255565238 0 0 0
3609 1 2.6977047 13.569002 0.61556873 0 0 0
3627 1 0 15.470572 0.61118629 0 0 0
3792 1 0 12.618125 0.61769626 0 0 0
3793 1 1.3465360857382362 14.532402362920324 2.879924696292838 0 0 0
3610 1 5.3954094 14.519819 0.61339924 0 0 0
3611 1 4.044151955582894 15.484052385809882 2.8777816492823516 0 0 0
3773 1 4.044178808843367 12.62965358883729 2.8843001090083455 0 0 0
3441 1 8.0931141 15.470572 0.61118629 0 0 0
3596 1 8.0931141 12.618125 0.61769626 0 0 0
3597 1 6.741950047851943 13.581722444593577 2.8821384515245025 0 0 0
3598 1 9.439650219845852 14.53240235437148 2.8799246115287955 0 0 0
3435 1 10.790819 13.569002 0.61556873 0 0 0
3437 1 12.137266155376093 15.484052348879983 2.8777815963878512 0 0 0
3588 1 12.137293009150449 12.62965355231689 2.884300056303476 0 0 0
3434 1 14.835064223868603 13.581722415884736 2.882138554414908 0 0 0
3436 1 13.488524 14.519819 0.61339924 0 0 0
3628 1 2.6977047 16.421261 0.60892835 0 0 0
3629 1 1.3464196809007971 17.386186374688602 2.8733008518954337 0 0 0
3649 1 0 18.322439 0.60427095 0 0 0
3451 1 5.3954094 17.371884 0.6066238 0 0 0
3630 1 4.044081194164288 18.337214423013247 2.871028245019064 0 0 0
3443 1 9.43953381494109 17.386186365237148 2.8733007671330277 0 0 0
3452 1 8.0931141 18.322439 0.60427095 0 0 0
3612 1 6.741854477120904 16.43530933088022 2.8755611333925772 0 0 0
3442 1 10.790819 16.421261 0.60892835 0 0 0
3444 1 12.137195393715057 18.337214385953928 2.871028192019678 0 0 0
3289 1 13.488524 17.371884 0.6066238 0 0 0
3438 1 14.83496865276306 16.43530930332779 2.8755612361884952 0 0 0
3465 1 2.6977047 19.272923 0.60186801 0 0 0
3483 1 0 21.173674 0.59690441 0 0 0
3650 1 1.346329486035058 20.238747798627884 2.8663325066317813 0 0 0
3466 1 5.3954094 20.223336 0.59941315 0 0 0
3467 1 4.04399801035454 21.189381720880764 2.8639163158078795 0 0 0
3297 1 8.0931141 21.173674 0.59690441 0 0 0
3453 1 6.741766332372359 19.288067182374675 2.868704563762881 0 0 0
3454 1 9.43944362004376 20.238747788767785 2.8663324218626807 0 0 0
3291 1 10.790819 19.272923 0.60186801 0 0 0
3293 1 12.137112209753992 21.189381683833606 2.8639162627422476 0 0 0
3290 1 14.834880507840973 19.28806715532864 2.868704666484789 0 0 0
3292 1 13.488524 20.223336 0.59941315 0 0 0
3484 1 2.6977047 22.123936 0.59433975 0 0 0
3485 1 1.3462276511988969 23.090299555189745 2.8589294687451527 0 0 0
3505 1 0 24.024222 0.58903406 0 0 0
3307 1 5.3954094 23.07412 0.59171705 0 0 0
3486 1 4.043886580748447 24.040607904647214 2.856346659548438 0 0 0
3299 1 9.439341785176929 23.09029954512963 2.8589293839783774 0 0 0
3308 1 8.0931141 24.024222 0.58903406 0 0 0
3468 1 6.741671789009767 22.13990368977345 2.8614512614355845 0 0 0
3298 1 10.790819 22.123936 0.59433975 0 0 0
3300 1 12.1370007800648 24.04060786763224 2.856346606463533 0 0 0
3145 1 13.488524 23.07412 0.59171705 0 0 0
3294 1 14.834785964379734 22.139903662997213 2.8614513641040404 0 0 0
3321 1 2.6977047 24.974242 0.58628844 0 0 0
3339 1 0 26.874023 0.58059935 0 0 0
3340 1 2.6977047 27.823778 0.5776506 0 0 0
3506 1 1.3460803491604019 25.94091197524435 2.8510031540036516 0 0 0
3322 1 5.3954094 25.924176 0.58347773 0 0 0
3323 1 4.043723691514153 26.890909127347122 2.8482282812251034 0 0 0
3153 1 8.0931141 26.874023 0.58059935 0 0 0
3309 1 6.741542558844886 24.990811405878123 2.8537070857758993 0 0 0
3310 1 9.439194483133615 25.94091196508283 2.851003069264492 0 0 0
3324 1 6.741358297764176 27.840799025511156 2.8453854913861463 0 0 0
3147 1 10.790819 24.974242 0.58628844 0 0 0
3149 1 12.13683789079563 26.890909090364765 2.8482282281453166 0 0 0
3154 1 10.790819 27.823778 0.5776506 0 0 0
3146 1 14.834656734157768 24.99081137928556 2.8537071884032006 0 0 0
3148 1 13.488524 25.924176 0.58347773 0 0 0
3150 1 14.834472473042716 27.84079899904526 2.8453855939978165 0 0 0
3177 1 2.6977047 30.672478 0.56835305 0 0 0
3341 1 1.3458731780725424 28.79059441668645 2.8424742930066085 0 0 0
3361 1 0 29.723009 0.5715305 0 0 0
3163 1 5.3954094 28.773441 0.57462864 0 0 0
3342 1 4.043497885850931 29.7402743077609 2.8394866356626838 0 0 0
3155 1 9.438987312048614 28.790594406483994 2.842474208291421 0 0 0
3164 1 8.0931141 29.723009 0.5715305 0 0 0
3165 1 6.741113568484747 30.689840023910957 2.8364187301535058 0 0 0
3003 1 10.790819 30.672478 0.56835305 0 0 0
3156 1 12.13661208511476 29.74027427081318 2.839486582594754 0 0 0
3001 1 13.488524 28.773441 0.57462864 0 0 0
3002 1 14.83422774373151 30.689839997533745 2.8364188327675333 0 0 0
3195 1 0 32.57111 0.56174702 0 0 0
3196 1 2.6977047 33.520268 0.55831141 0 0 0
3362 1 1.3456088146235337 31.63929859942165 2.8332737588034718 0 0 0
3178 1 5.3954094 31.621846 0.56509303 0 0 0
3179 1 4.043214538607159 32.588643997545745 2.830046283855159 0 0 0
3009 1 8.0931141 32.57111 0.56174702 0 0 0
3166 1 9.438722948605657 31.6392985891989 2.8332736741082853 0 0 0
3180 1 6.740814906279882 33.53786947235489 2.82672906456102 0 0 0
3005 1 12.136328737853132 32.58864396064198 2.830046230798047 0 0 0
3010 1 10.790819 33.520268 0.55831141 0 0 0
3004 1 13.488524 31.621846 0.56509303 0 0 0
3006 1 14.833929081492679 33.5378694460667 2.826729167175802 0 0 0
3033 1 2.6977047 36.367072 0.54742849 0 0 0
3197 1 1.3452955155857227 34.48697112213341 2.823322108848752 0 0 0
3217 1 0 35.418252 0.55115618 0 0 0
3019 1 5.3954094 34.469316 0.55478245 0 0 0
3198 1 4.042885870958731 35.43595877023714 2.8198234648156766 0 0 0
3011 1 9.438409649575158 34.48697111188992 2.8233220241761967 0 0 0
3020 1 8.0931141 35.418252 0.55115618 0 0 0
3021 1 6.740472817495673 36.38482061087923 2.8162268911439168 0 0 0
2859 1 10.790819 36.367072 0.54742849 0 0 0
3012 1 12.136000070186181 35.43595873338634 2.819823411779862 0 0 0
2857 1 13.488524 34.469316 0.55478245 0 0 0
2858 1 14.833586992675079 36.38482058469431 2.8162269937607 0 0 0
3051 1 0 38.264356 0.53965134 0 0 0
3052 1 2.6977047 39.212814 0.53559264 0 0 0
3053 1 1.3445405520743823 40.1789666922753 2.800785024004753 0 0 0
3218 1 1.3449398727157085 37.33355137043378 2.8125279428723386 0 0 0
2875 1 5.3954094 40.161144 0.53141404 0 0 0
3034 1 5.3954094 37.315775 0.54359505 0 0 0
3035 1 4.042515639733365 38.28215640039572 2.8087250520039357 0 0 0
2865 1 8.0931141 38.264356 0.53965134 0 0 0
2867 1 9.437654686091232 40.17896668199161 2.8007849394015136 0 0 0
3022 1 9.438054006714701 37.333551360169466 2.812527858235246 0 0 0
3036 1 6.740087885371109 39.230629310129196 2.8048130528467237 0 0 0
2861 1 12.135629838951026 38.28215636359822 2.808724999006766 0 0 0
2866 1 10.790819 39.212814 0.53559264 0 0 0
2713 1 13.488524 40.161144 0.53141404 0 0 0
2860 1 13.488524 37.315775 0.54359505 0 0 0
2862 1 14.833202060519168 39.230629284049826 2.8048131554741675 0 0 0
2889 1 2.6977047 42.057414 0.52267636 0 0 0
3073 1 0 41.109345 0.5271104 0 0 0
3074 1 1.3440950219357874 43.02314370248695 2.787956528199783 0 0 0
2890 1 5.3954094 43.005347 0.51810638 0 0 0
3054 1 4.0421014638513855 41.127165558246475 2.79663690308541 0 0 0
2876 1 8.0931141 41.109345 0.5271104 0 0 0
2877 1 6.739657455282386 42.075226276864605 2.792363440995479 0 0 0
2878 1 9.437209155960629 43.02314369219115 2.7879564436241497 0 0 0
2715 1 10.790819 42.057414 0.52267636 0 0 0
2868 1 12.135215663059222 41.12716552149927 2.796636850130063 0 0 0
2714 1 14.832771630392417 42.07522625088385 2.7923635436421756 0 0 0
2716 1 13.488524 43.005347 0.51810638 0 0 0
2907 1 0 43.953144 0.5133947 0 0 0
2908 1 2.6977047 44.9008 0.50853536 0 0 0
2909 1 1.3436014675951542 45.86601244621658 2.7738662998063206 0 0 0
2731 1 5.3954094 45.848315 0.50352218 0 0 0
2891 1 4.0416415497444 43.970913455710466 2.783408764573148 0 0 0
2721 1 8.0931141 43.953144 0.5133947 0 0 0
2723 1 9.436715601628789 45.86601243591787 2.7738662152666107 0 0 0
2892 1 6.739181546851859 44.91853784872033 2.778714571931074 0 0 0
2717 1 12.134755748938987 43.97091341900279 2.7834087116642543 0 0 0
2722 1 10.790819 44.9008 0.50853536 0 0 0
2569 1 13.488524 45.848315 0.50352218 0 0 0
2718 1 14.832295721937273 44.91853782283071 2.7787146745885343 0 0 0
2745 1 2.6977047 47.742911 0.49300888 0 0 0
2929 1 0 46.795686 0.49834886 0 0 0
2930 1 1.343043780345815 48.707512644341655 2.758312577156812 0 0 0
2746 1 5.3954094 48.68999 0.48749562 0 0 0
2910 1 4.041128260778263 46.81333350564549 2.7688550256132034 0 0 0
2732 1 8.0931141 46.795686 0.49834886 0 0 0
2733 1 6.738646857199244 47.76050098821635 2.7636732657110876 0 0 0
2734 1 9.436157914396377 48.70751263405814 2.7583124926682356 0 0 0
2571 1 10.790819 47.742911 0.49300888 0 0 0
2724 1 12.134242459961133 46.813333468990464 2.768854972751535 0 0 0
2570 1 14.831761032243818 47.7605009624335 2.7636733683841475 0 0 0
2572 1 13.488524 48.68999 0.48749562 0 0 0
2763 1 0 49.636922 0.48180235 0 0 0
2764 1 2.6977047 50.583707 0.47592227 0 0 0
2765 1 1.342423528743634 51.54760314355274 2.7410676457412495 0 0 0
2785 1 0 52.476835 0.46357455 0 0 0
2587 1 5.3954094 51.530344 0.46984859 0 0 0
2747 1 4.040547912459309 49.654367505238504 2.752764131712708 0 0 0
2766 1 4.039909668283588 52.49398763513374 2.7349033326015793 0 0 0
2577 1 8.0931141 49.636922 0.48180235 0 0 0
2579 1 9.435537662834161 51.54760313326043 2.7410675613084856 0 0 0
2588 1 8.0931141 52.476835 0.46357455 0 0 0
2748 1 6.7380458407104395 50.60106399470146 2.7470185718788507 0 0 0
2573 1 12.133662111621643 49.654367468670024 2.7527640789356593 0 0 0
2578 1 10.790819 50.583707 0.47592227 0 0 0
2580 1 12.133023867431827 52.49398759861362 2.7349032798957094 0 0 0
2425 1 13.488524 51.530344 0.46984859 0 0 0
2574 1 14.831160015694815 50.60106396904073 2.747018674585162 0 0 0
2601 1 2.6977047 53.423181 0.45709353 0 0 0
2619 1 0 55.315451 0.44348534 0 0 0
2786 1 1.341769133293589 54.38629607157755 2.721885672800584 0 0 0
2602 1 5.3954094 54.369385 0.45039914 0 0 0
2603 1 4.039263697034897 55.33223204671578 2.715012000034363 0 0 0
2433 1 8.0931141 55.315451 0.44348534 0 0 0
2589 1 6.737394807822131 53.44021542140703 2.7285125076135524 0 0 0
2590 1 9.43488326739529 54.38629606123365 2.7218855883913196 0 0 0
2427 1 10.790819 53.423181 0.45709353 0 0 0
2429 1 12.132377896195985 55.33223201019196 2.715011947363737 0 0 0
2426 1 14.830508982749926 53.44021539586265 2.728512610383477 0 0 0
2428 1 13.488524 54.369385 0.45039914 0 0 0
2620 1 2.6977047 56.261382 0.43634652 0 0 0
2621 1 1.3411783694922712 57.22369362412978 2.7004954572857063 0 0 0
2641 1 0 58.152868 0.4213749 0 0 0
2443 1 5.3954094 57.207186 0.42897776 0 0 0
2622 1 4.038723848796051 58.16923357948697 2.6928392723555454 0 0 0
2435 1 9.434292503600753 57.22369361377757 2.7004953728988865 0 0 0
2444 1 8.0931141 58.152868 0.4213749 0 0 0
2604 1 6.736771605850313 56.278028214285385 2.7078827572558932 0 0 0
2434 1 10.790819 56.261382 0.43634652 0 0 0
2436 1 12.13183804801308 58.16923354303174 2.6928392197446023 0 0 0
2281 1 13.488524 57.207186 0.42897776 0 0 0
2430 1 14.829885780816621 56.27802818883303 2.707882860082041 0 0 0
2457 1 2.6977047 59.098438 0.41353487 0 0 0
2475 1 0 60.989282 0.3971376 0 0 0
2476 1 2.6977047 61.934583 0.38858178 0 0 0
2642 1 1.34079746633872 60.05996769860826 2.676710329846648 0 0 0
2458 1 5.3954094 60.043905 0.40545585 0 0 0
2459 1 4.038459315565349 61.005169194151115 2.668229111496552 0 0 0
2289 1 8.0931141 60.989282 0.3971376 0 0 0
2445 1 6.736297831884957 59.11465532761217 2.684912279832748 0 0 0
2446 1 9.433911600460721 60.05996768833198 2.676710245560363 0 0 0
2460 1 6.736168365104183 61.95028679189206 2.659480076815823 0 0 0
2283 1 10.790819 59.098438 0.41353487 0 0 0
2285 1 12.131573514769618 61.00516915783348 2.6682290589778663 0 0 0
2290 1 10.790819 61.934583 0.38858178 0 0 0
2282 1 14.829412006863084 59.11465530225839 2.684912382740705 0 0 0
2284 1 13.488524 60.043905 0.40545585 0 0 0
2286 1 14.829282540057413 61.950286766604606 2.6594801797970185 0 0 0
2313 1 2.6977047 64.770191 0.36154195 0 0 0
2477 1 1.3408158364117657 62.8953131841419 2.6504558847607695 0 0 0
2497 1 0 63.825018 0.37077581 0 0 0
2299 1 5.3954094 62.879822 0.37979232 0 0 0
2478 1 4.038637254656922 63.840264342025534 2.641164029790534 0 0 0
2291 1 9.433929970531377 62.89531317393789 2.650455800546145 0 0 0
2300 1 8.0931141 63.825018 0.37077581 0 0 0
2301 1 6.7365162408562504 64.78515993705578 2.6316008989684057 0 0 0
2139 1 10.790819 64.770191 0.36154195 0 0 0
2292 1 12.131751453780879 63.840264305798584 2.641163977290742 0 0 0
2137 1 13.488524 62.879822 0.37979232 0 0 0
2138 1 14.829630415812188 64.7851599117573 2.631601002037288 0 0 0
2331 1 0 66.660556 0.34247948 0 0 0
2332 1 2.6977047 67.605798 0.33269028 0 0 0
2498 1 1.3413425498138103 65.73001011608987 2.6217622130585743 0 0 0
2314 1 5.3954094 65.715362 0.35210404 0 0 0
2315 1 4.0393267824209085 66.6748413595743 2.6116784023744737 0 0 0
2145 1 8.0931141 66.660556 0.34247948 0 0 0
2302 1 9.434456683853277 65.73001010598476 2.6217621287794732 0 0 0
2316 1 6.737358330534805 67.61966757991087 2.6013442487286613 0 0 0
2141 1 12.132440981473657 66.67484132326031 2.6116783498145577 0 0 0
2146 1 10.790819 67.605798 0.33269028 0 0 0
2140 1 13.488524 65.715362 0.35210404 0 0 0
2142 1 14.830472505617353 67.61966755441033 2.6013443519746806 0 0 0
2169 1 2.6977047 70.442098 0.30263542 0 0 0
2333 1 1.3423169598160378 68.5645243993999 2.590781649347607 0 0 0
2353 1 0 69.49654 0.31273235 0 0 0
2155 1 5.3954094 68.551116 0.32276363 0 0 0
2334 1 4.040427389242437 69.50943920235733 2.58000859740016 0 0 0
2147 1 9.435431093682798 68.5645243893354 2.590781564983693 0 0 0
2156 1 8.0931141 69.49654 0.31273235 0 0 0
2157 1 6.73857634244213 70.45443235271146 2.5690564914103344 0 0 0
1995 1 10.790819 70.442098 0.30263542 0 0 0
2148 1 12.13354158830226 69.5094391658472 2.5800085448278467 0 0 0
1993 1 13.488524 68.551116 0.32276363 0 0 0
1994 1 14.831690517855744 70.45443232711172 2.569056594913725 0 0 0
2187 1 0 72.333744 0.28243345 0 0 0
2188 1 2.6977047 73.279892 0.27243999 0 0 0
2189 1 1.3451801470779352 74.23596010365037 2.5245400017867357 0 0 0
2354 1 1.343635277272829 71.39955109628214 2.5579842617306343 0 0 0
2011 1 5.3954094 74.226293 0.26260411 0 0 0
2170 1 5.3954094 71.387823 0.29251835 0 0 0
2171 1 4.041832405775936 72.34482200309898 2.5468182928633882 0 0 0
2001 1 8.0931141 72.333744 0.28243345 0 0 0
2003 1 9.43829428124979 74.23596009406602 2.5245399175179184 0 0 0
2158 1 9.43674941101249 71.39955108625134 2.5579841773805745 0 0 0
2172 1 6.740054673252447 73.29027814421607 2.5356514755946713 0 0 0
1997 1 12.13494660509341 72.34482196713088 2.546818240345674 0 0 0
2002 1 10.790819 73.279892 0.27243999 0 0 0
1849 1 13.488524 74.226293 0.26260411 0 0 0
1996 1 13.488524 71.387823 0.29251835 0 0 0
1998 1 14.833168848916284 73.29027811897066 2.535651579356718 0 0 0
2025 1 2.6977047 76.119952 0.24370192 0 0 0
2209 1 0 75.172973 0.25299853 0 0 0
2210 1 1.3467595025829517 77.07465496628271 2.492529320128936 0 0 0
2026 1 5.3954094 77.067247 0.23479798 0 0 0
2190 1 4.043421282870359 75.18189431587089 2.513580006480745 0 0 0
2012 1 8.0931141 75.172973 0.25299853 0 0 0
2013 1 6.7416537909581775 76.1281188394167 2.5028657870210047 0 0 0
2014 1 9.439873637292157 77.07465495741768 2.4925292355488526 0 0 0
1851 1 10.790819 76.119952 0.24370192 0 0 0
2004 1 12.136535482538285 75.18189428087567 2.5135799539440034 0 0 0
1850 1 14.834767966334065 76.1281188141311 2.502865890990476 0 0 0
1852 1 13.488524 77.067247 0.23479798 0 0 0
2043 1 0 78.014867 0.22637418 0 0 0
2044 1 2.6977047 78.962815 0.21852012 0 0 0
2045 1 1.348043232186273 79.91625255980021 2.4648235269996626 0 0 0
1867 1 5.3954094 79.911085 0.21132555 0 0 0
2027 1 4.0449425470169835 78.02151320598719 2.48264829828524 0 0 0
1857 1 8.0931141 78.014867 0.22637418 0 0 0
1859 1 9.441157366759269 79.91625255098904 2.4648234417641595 0 0 0
2028 1 6.7430771336466 78.968724281248 2.473353422316031 0 0 0
1853 1 12.138056746729717 78.0215131711218 2.4826482451174763 0 0 0
1858 1 10.790819 78.962815 0.21852012 0 0 0
1705 1 13.488524 79.911085 0.21132555 0 0 0
1854 1 14.83619130888021 78.9687242556504 2.4733535265371476 0 0 0
1881 1 2.6977047 81.808529 0.19926102 0 0 0
1899 1 0 83.706981 0.19081221 0 0 0
2065 1 0 80.859664 0.20487813 0 0 0
2066 1 1.3487704356161274 82.7607395165558 2.4447923738592774 0 0 0
1882 1 5.3954094 82.757648 0.19455024 0 0 0
1883 1 4.046584386164778 83.70941732602057 2.440350383087316 0 0 0
2046 1 4.046049214101424 80.86413660020949 2.457163030791112 0 0 0
1713 1 8.0931141 83.706981 0.19081221 0 0 0
1868 1 8.0931141 80.859664 0.20487813 0 0 0
1869 1 6.743997535445784 81.81229728323368 2.450394712825067 0 0 0
1870 1 9.44188457002072 82.76073950685326 2.444792288235905 0 0 0
1707 1 10.790819 81.808529 0.19926102 0 0 0
1709 1 12.139698586850718 83.70941729312858 2.44035032924901 0 0 0
1860 1 12.139163413888383 80.86413656552136 2.4571629770165306 0 0 0
1706 1 14.837111711164175 81.81229725881488 2.4503948176871537 0 0 0
1708 1 13.488524 82.757648 0.19455024 0 0 0
1900 1 2.6977047 84.656483 0.1881014 0 0 0
1901 1 1.3490018125856278 85.60720682309051 2.4352505848144235 0 0 0
1921 1 0 86.555775 0.18590779 0 0 0
1723 1 5.3954094 85.606099 0.18645827 0 0 0
1902 1 4.046739352153828 86.55623695902462 2.4346716898572676 0 0 0
1715 1 9.442115947913207 85.60720681213351 2.4352504992257438 0 0 0
1724 1 8.0931141 86.555775 0.18590779 0 0 0
1884 1 6.744363680423382 84.65825930898076 2.437116199219397 0 0 0
1714 1 10.790819 84.656483 0.1881014 0 0 0
1716 1 12.139853554164263 86.55623692953986 2.434671635971946 0 0 0
1561 1 13.488524 85.606099 0.18645827 0 0 0
1710 1 14.837477856867329 84.65825928733128 2.4371163042817066 0 0 0
1737 1 2.6977047 87.50545 0.18645836 0 0 0
1755 1 0 89.404568 0.19081247 0 0 0
1922 1 1.3491435379160743 88.45415931730221 2.4376269954472103 0 0 0
1738 1 5.3954094 88.455067 0.18810157 0 0 0
1739 1 4.046935215515477 89.40294627941931 2.4410189954670733 0 0 0
1569 1 8.0931141 89.404568 0.19081247 0 0 0
1725 1 6.744467089598567 87.50522679064109 2.4354598683823396 0 0 0
1726 1 9.44225767531678 88.45415930480314 2.437626909092451 0 0 0
1563 1 10.790819 87.50545 0.18645836 0 0 0
1565 1 12.140049419083995 89.40294625375587 2.4410189405303595 0 0 0
1562 1 14.837581266005095 87.50522677295598 2.4354599730435056 0 0 0
1564 1 13.488524 88.455067 0.18810157 0 0 0
1756 1 2.6977047 90.353902 0.19455057 0 0 0
1757 1 1.3496093767718138 91.29991689632365 2.451520100172501 0 0 0
1777 1 0 92.251885 0.20487862 0 0 0
1579 1 5.3954094 91.303021 0.19926143 0 0 0
1758 1 4.047582067057156 92.24800813985604 2.458375394013166 0 0 0
1571 1 9.442723517436306 91.29991687884882 2.4515200129895414 0 0 0
1580 1 8.0931141 92.251885 0.20487862 0 0 0
1740 1 6.744790194637134 90.35155169818248 2.44567356611869 0 0 0
1570 1 10.790819 90.353902 0.19455057 0 0 0
1572 1 12.14069627328089 92.24800812062543 2.4583753380898106 0 0 0
1417 1 13.488524 91.303021 0.19926143 0 0 0
1566 1 14.837904369909985 90.35155168856016 2.4456736702669146 0 0 0
1593 1 2.6977047 93.200464 0.21132609 0 0 0
1611 1 0 95.096682 0.22637483 0 0 0
1612 1 2.6977047 96.044303 0.23479867 0 0 0
1778 1 1.3506126224269106 94.14325902786109 2.4748246596272825 0 0 0
1594 1 5.3954094 94.148735 0.21852072 0 0 0
1595 1 4.048746715152071 95.09037820634553 2.484177036729463 0 0 0
1425 1 8.0931141 95.096682 0.22637483 0 0 0
1581 1 6.745619895338225 93.19578233157574 2.4661939859169513 0 0 0
1582 1 9.443726770024996 94.14325899707946 2.4748245720130893 0 0 0
1596 1 6.74693345241208 96.03718942275347 2.4940937459628874 0 0 0
1419 1 10.790819 93.200464 0.21132609 0 0 0
1421 1 12.141860928142028 95.0903782126185 2.484176978856285 0 0 0
1426 1 10.790819 96.044303 0.23479867 0 0 0
1418 1 14.838734068735178 93.1957823419086 2.466194089828139 0 0 0
1420 1 13.488524 94.148735 0.21852072 0 0 0
1422 1 14.84004762134263 96.03718948435514 2.494093846586057 0 0 0
1449 1 2.6977047 98.885257 0.26260489 0 0 0
1613 1 1.3520254005022714 96.9836702519219 2.504460166107716 0 0 0
1633 1 0 97.938577 0.25299928 0 0 0
1435 1 5.3954094 96.991597 0.24370264 0 0 0
1614 1 4.050238735877573 97.92986737609074 2.515180327867898 0 0 0
1427 1 9.445139567896783 96.98367019306443 2.504460079407784 0 0 0
1436 1 8.0931141 97.938577 0.25299928 0 0 0
1437 1 6.7484538069710736 98.87578837838056 2.5261201879513617 0 0 0
1275 1 10.790819 98.885257 0.26260489 0 0 0
1428 1 12.143352964313193 97.92986746276382 2.5151802654767708 0 0 0
1273 1 13.488524 96.991597 0.24370264 0 0 0
1274 1 14.841567960485477 98.87578856392868 2.5261202765795163 0 0 0
1467 1 0 100.77781 0.28243425 0 0 0
1468 1 2.6977047 101.72373 0.29251915 0 0 0
1634 1 1.3535696588513275 99.82146424634175 2.537220334490673 0 0 0
1450 1 5.3954094 99.831658 0.27244078 0 0 0
1451 1 4.051761619395428 100.76693783247474 2.54835861311061 0 0 0
1281 1 8.0931141 100.77781 0.28243425 0 0 0
1438 1 9.446683877743881 99.82146412216487 2.537220252108639 0 0 0
1452 1 6.749954732131084 101.71222701545811 2.559480883419556 0 0 0
1277 1 12.144875883409458 100.76693815086733 2.54835852963464 0 0 0
1282 1 10.790819 101.72373 0.29251915 0 0 0
1276 1 13.488524 99.831658 0.27244078 0 0 0
1278 1 14.843068851424675 101.71222751093723 2.5594809116371815 0 0 0
1305 1 2.6977047 104.56043 0.32276442 0 0 0
1469 1 1.3549965499953307 102.65737091048598 2.570506171885732 0 0 0
1489 1 0 103.61501 0.31273315 0 0 0
1291 1 5.3954094 102.66945 0.30263623 0 0 0
1470 1 4.053137212475477 103.6024136639476 2.5814098055126125 0 0 0
1283 1 9.448110920397257 102.65737060023032 2.5705061413833907 0 0 0
1292 1 8.0931141 103.61501 0.31273315 0 0 0
1293 1 6.751234476093158 104.54736924583096 2.59213515207307 0 0 0
1131 1 10.790819 104.56043 0.32276442 0 0 0
1284 1 12.146251673800334 103.6024147758082 2.581409406097232 0 0 0
1129 1 13.488524 102.66945 0.30263623 0 0 0
1130 1 14.844348315191674 104.54737069101714 2.592134400734975 0 0 0
1323 1 0 106.45099 0.34248025 0 0 0
1324 1 2.6977047 107.39619 0.3521048 0 0 0
1325 1 1.3569031064117119 108.32701086729587 2.632739492496356 0 0 0
1490 1 1.35617333767448 105.49228526167106 2.602641473809184 0 0 0
1147 1 5.3954094 108.34136 0.36154269 0 0 0
1306 1 5.3954094 105.50575 0.33269107 0 0 0
1307 1 4.054175909000677 106.4371700586814 2.6129183260146718 0 0 0
1137 1 8.0931141 106.45099 0.34248025 0 0 0
1139 1 9.450016776324112 108.3270085122889 2.6327411725176026 0 0 0
1294 1 9.44928832427229 105.49228430595802 2.602641994005972 0 0 0
1308 1 6.752127301027643 107.38207868199946 2.62295680215257 0 0 0
1133 1 12.147291218718378 106.43717299279768 2.612916495296723 0 0 0
1138 1 10.790819 107.39619 0.3521048 0 0 0
985 1 13.48852 108.3414 0.3615427 0 0 0
1132 1 13.488524 105.50575 0.33269107 0 0 0
1134 1 14.845239774769963 107.38208155092502 2.6229529672594563 0 0 0
1161 1 2.6977047 110.23173 0.37979303 0 0 0
1345 1 0 109.28653 0.37077653 0 0 0
1346 1 1.3570957913722157 111.16217714814181 2.660480373516155 0 0 0
1162 1 5.3954094 111.17697 0.38858247 0 0 0
1326 1 4.054734213558502 109.27199228860762 2.6422521926446545 0 0 0
1148 1 8.0931141 109.28653 0.37077653 0 0 0
1149 1 6.752498009305827 110.21704402381737 2.6514962410376084 0 0 0
1150 1 9.450208330582603 111.16217544030474 2.6604775385162815 0 0 0
987 1 10.79082 110.2317 0.379793 0 0 0
1140 1 12.147847926952858 109.27199459851046 2.6422576116114542 0 0 0
986 1 14.845611245934219 110.21704689618903 2.651497457547905 0 0 0
988 1 13.48852 111.177 0.3885825 0 0 0
1179 1 0 112.12227 0.39713827 0 0 0
1180 1 2.6977047 113.06764 0.4054565 0 0 0
1181 1 1.3568656207832912 113.99814830823051 2.685829161465538 0 0 0
1003 1 5.3954094 114.01311 0.41353551 0 0 0
1163 1 4.054761518883166 112.10739800183718 2.669198127734567 0 0 0
993 1 8.093114 112.1223 0.3971383 0 0 0
995 1 9.449983494641222 113.99815167130744 2.685824753371646 0 0 0
1164 1 6.752388113645049 113.05272177513666 2.677649531734581 0 0 0
989 1 12.147874051100702 112.10739816388875 2.6692033644986255 0 0 0
994 1 10.79082 113.0676 0.4054565 0 0 0
841 1 13.48852 114.0131 0.4135355 0 0 0
990 1 14.8455021413122 113.05272415966952 2.6776486570872176 0 0 0
1017 1 2.6977047 115.90436 0.42897835 0 0 0
1035 1 0 117.7961 0.4434859 0 0 0
1201 1 0 114.95868 0.42137552 0 0 0
1202 1 1.356390566022123 116.83513490541166 2.708786897376699 0 0 0
1018 1 5.3954094 116.85017 0.4363471 0 0 0
1019 1 4.053911013359366 117.7810570158218 2.7159229425465274 0 0 0
1182 1 4.054430393250253 114.94369068247629 2.693744963137803 0 0 0
849 1 8.093114 117.7961 0.4434859 0 0 0
1004 1 8.0931141 114.95868 0.42137552 0 0 0
1005 1 6.75197454383165 115.88935045959398 2.701394781278052 0 0 0
1006 1 9.449504895360201 116.83513960477704 2.7087875222698132 0 0 0
843 1 10.79082 115.9044 0.4289784 0 0 0
845 1 12.147023019471579 117.7810633558314 2.715924543128625 0 0 0
996 1 12.147542436371035 114.94369375854446 2.693737122884322 0 0 0
842 1 14.845085243223531 115.88935237809604 2.701390982209408 0 0 0
844 1 13.48852 116.8502 0.4363471 0 0 0
1036 1 2.6977047 118.74216 0.45039969 0 0 0
1037 1 1.3558076679416717 119.67332539968388 2.7294435861878883 0 0 0
1057 1 0 120.63471 0.46357506 0 0 0
859 1 5.395409 119.6884 0.4570941 0 0 0
1038 1 4.053300667476681 120.61968910883269 2.7358458043197977 0 0 0
851 1 9.448919676908995 119.6733281510565 2.729448754565537 0 0 0
860 1 8.093114 120.6347 0.4635751 0 0 0
1020 1 6.751418458467336 118.72711762512242 2.7228064597922805 0 0 0
850 1 10.79082 118.7422 0.4503997 0 0 0
852 1 12.146415283330294 120.61969424743114 2.735849686642807 0 0 0
697 1 13.48852 119.6884 0.4570941 0 0 0
846 1 14.84453374952208 118.72712082904164 2.722806884877555 0 0 0
873 1 2.697705 121.5812 0.4698491 0 0 0
891 1 0 123.4746 0.4818028 0 0 0
1058 1 1.3551878986534176 122.51291167325606 2.747969423084715 0 0 0
874 1 5.395409 122.5278 0.4759227 0 0 0
875 1 4.052691636446135 123.45976412474828 2.7537174157383637 0 0 0
705 1 8.093114 123.4746 0.4818028 0 0 0
861 1 6.750801901054231 121.5662172269559 2.7420188445291607 0 0 0
862 1 9.448301217622586 122.51291242493465 2.74796994007451 0 0 0
699 1 10.79082 121.5812 0.4698491 0 0 0
701 1 12.145805387601857 123.45976609799062 2.753718646704702 0 0 0
698 1 14.843916435000466 121.56621893433322 2.742019252955638 0 0 0
700 1 13.48852 122.5278 0.4759227 0 0 0
892 1 2.697705 124.4216 0.4874961 0 0 0
893 1 1.3546144496644432 125.35398303602577 2.7646513397649746 0 0 0
913 1 0 126.3159 0.4983493 0 0 0
715 1 5.395409 125.3686 0.4930093 0 0 0
894 1 4.052159768395624 126.30133131510655 2.769852575690411 0 0 0
707 1 9.44772844279544 125.35398324541342 2.7646514705043423 0 0 0
716 1 8.093114 126.3159 0.4983493 0 0 0
876 1 6.750209431941476 124.40678848883259 2.7592760709418322 0 0 0
706 1 10.79082 124.4216 0.4874961 0 0 0
708 1 12.145273547714277 126.30133206018655 2.769853328531473 0 0 0
553 1 13.48852 125.3686 0.4930093 0 0 0
702 1 14.843323336695743 124.40678927433827 2.759275819776362 0 0 0
729 1 2.697705 127.2632 0.5035226 0 0 0
747 1 0 129.1584 0.5133951 0 0 0
748 1 2.697705 130.1062 0.5181068 0 0 0
914 1 1.3541588423098105 128.19652121838666 2.7797556859525487 0 0 0
730 1 5.395409 128.2107 0.5085357 0 0 0
731 1 4.051730615943782 129.14433523071423 2.7844763946960813 0 0 0
561 1 8.093114 129.1584 0.5133951 0 0 0
717 1 6.7497087513680905 127.24884603071033 2.774886319296415 0 0 0
718 1 9.447272980590421 128.1965213012305 2.7797558324442107 0 0 0