LAMMPS (27 Jun 2024)
OMP_NUM_THREADS environment is not set. Defaulting to 1 thread. (src/comm.cpp:98)
  using 1 OpenMP thread(s) per MPI task
Reading data file ...
  orthogonal box = (0 0 0) to (16.186228 171.68088 70.088424)
  1 by 1 by 1 MPI processor grid
  reading atoms ...
  8214 atoms
  read_data CPU = 0.013 seconds
System init for write_data ...
Neighbor list info ...
  update: every = 1 steps, delay = 5 steps, check = yes
  max neighbors/atom: 2000, page size: 100000
  master list distance cutoff = 6.2
  ghost atom cutoff = 6.2
  binsize = 3.1, bins = 6 56 23
  1 neighbor lists, perpetual/occasional/extra = 1 0 0
  (1) pair eam/fs, perpetual
      attributes: half, newton on
      pair build: half/bin/atomonly/newton
      stencil: half/bin/3d
      bin: standard
0 atoms in group ulayer
Deleted 0 atoms, new total = 8214
44 atoms in group lb
360 atoms in group bb
92 atoms in group rb
354 atoms in group ub
Changing box ...
  orthogonal box = (0 0 0) to (16.186228 173.68088 70.088424)

CITE-CITE-CITE-CITE-CITE-CITE-CITE-CITE-CITE-CITE-CITE-CITE-CITE

Your simulation uses code contributions which should be cited:
- Type Label Framework: https://doi.org/10.1021/acs.jpcb.3c08419
The log file lists these citations in BibTeX format.

CITE-CITE-CITE-CITE-CITE-CITE-CITE-CITE-CITE-CITE-CITE-CITE-CITE

Switching to 'neigh_modify every 1 delay 0 check yes' setting during minimization
Setting up cg style minimization ...
  Unit style    : metal
  Current step  : 0
WARNING: A per-atom density exceeded rhomax of EAM potential table - a linear extrapolation to the energy was made (src/MANYBODY/pair_eam.cpp:334)
Per MPI rank memory allocation (min/avg/max) = 5.944 | 5.944 | 5.944 Mbytes
   Step           Lx             Lx             Ly             Lz          Atoms         Temp          PotEng           Lx             Ly             Lz           Press          c_KET          c_PET     
         0   16.186228      16.186228      173.68088      70.088424           8214   2             -71157.691      16.186228      173.68088      70.088424     -145620.36      2.1232271     -71157.691    
         2   16.186228      16.186228      173.68088      70.088424           8214   2             -71172.027      16.186228      173.68088      70.088424     -145414.28      2.1232271     -71172.027    
         4   16.186228      16.186228      173.68088      70.088424           8214   2             -71179.819      16.186228      173.68088      70.088424     -145191.3       2.1232271     -71179.819    
         6   16.186228      16.186228      173.68088      70.088424           8214   2             -71184.06       16.186228      173.68088      70.088424     -145048.22      2.1232271     -71184.06     
         8   16.186228      16.186228      173.68088      70.088424           8214   2             -71185.333      16.186228      173.68088      70.088424     -145033.76      2.1232271     -71185.333    
        10   16.186228      16.186228      173.68088      70.088424           8214   2             -71186.183      16.186228      173.68088      70.088424     -145020.75      2.1232271     -71186.183    
        12   16.186228      16.186228      173.68088      70.088424           8214   2             -71186.46       16.186228      173.68088      70.088424     -145027.5       2.1232271     -71186.46     
        14   16.186228      16.186228      173.68088      70.088424           8214   2             -71186.59       16.186228      173.68088      70.088424     -145022.71      2.1232271     -71186.59     
        16   16.186228      16.186228      173.68088      70.088424           8214   2             -71186.653      16.186228      173.68088      70.088424     -145017.58      2.1232271     -71186.653    
        18   16.186228      16.186228      173.68088      70.088424           8214   2             -71186.722      16.186228      173.68088      70.088424     -145020.54      2.1232271     -71186.722    
        20   16.186228      16.186228      173.68088      70.088424           8214   2             -71186.764      16.186228      173.68088      70.088424     -145019.02      2.1232271     -71186.764    
        22   16.186228      16.186228      173.68088      70.088424           8214   2             -71186.805      16.186228      173.68088      70.088424     -145016.26      2.1232271     -71186.805    
        24   16.186228      16.186228      173.68088      70.088424           8214   2             -71186.828      16.186228      173.68088      70.088424     -145016.77      2.1232271     -71186.828    
        26   16.186228      16.186228      173.68088      70.088424           8214   2             -71186.851      16.186228      173.68088      70.088424     -145016.92      2.1232271     -71186.851    
        28   16.186228      16.186228      173.68088      70.088424           8214   2             -71186.866      16.186228      173.68088      70.088424     -145016.57      2.1232271     -71186.866    
        30   16.186228      16.186228      173.68088      70.088424           8214   2             -71186.871      16.186228      173.68088      70.088424     -145016.79      2.1232271     -71186.871    
        32   16.186228      16.186228      173.68088      70.088424           8214   2             -71186.873      16.186228      173.68088      70.088424     -145017.05      2.1232271     -71186.873    
        34   16.186228      16.186228      173.68088      70.088424           8214   2             -71186.879      16.186228      173.68088      70.088424     -145016.59      2.1232271     -71186.879    
        36   16.186228      16.186228      173.68088      70.088424           8214   2             -71186.883      16.186228      173.68088      70.088424     -145016.58      2.1232271     -71186.883    
        38   16.186228      16.186228      173.68088      70.088424           8214   2             -71186.884      16.186228      173.68088      70.088424     -145017.02      2.1232271     -71186.884    
        40   16.186228      16.186228      173.68088      70.088424           8214   2             -71186.89       16.186228      173.68088      70.088424     -145016.88      2.1232271     -71186.89     
        42   16.186228      16.186228      173.68088      70.088424           8214   2             -71186.894      16.186228      173.68088      70.088424     -145016.7       2.1232271     -71186.894    
        43   16.186228      16.186228      173.68088      70.088424           8214   2             -71186.894      16.186228      173.68088      70.088424     -145016.82      2.1232271     -71186.894    
Loop time of 0.381478 on 1 procs for 43 steps with 8214 atoms

99.3% CPU use with 1 MPI tasks x 1 OpenMP threads

Minimization stats:
  Stopping criterion = energy tolerance
  Energy initial, next-to-last, final = 
     -71157.6905698928  -71186.8935975243  -71186.8942510498
  Force two-norm initial, final = 17.202547 0.05557034
  Force max component initial, final = 3.1996354 0.0064971188
  Final line search alpha, max atom move = 0.25 0.0016242797
  Iterations, force evaluations = 43 112

MPI task timing breakdown:
Section |  min time  |  avg time  |  max time  |%varavg| %total
---------------------------------------------------------------
Pair    | 0.36608    | 0.36608    | 0.36608    |   0.0 | 95.96
Neigh   | 0          | 0          | 0          |   0.0 |  0.00
Comm    | 0.002568   | 0.002568   | 0.002568   |   0.0 |  0.67
Output  | 0.0011253  | 0.0011253  | 0.0011253  |   0.0 |  0.29
Modify  | 0.002083   | 0.002083   | 0.002083   |   0.0 |  0.55
Other   |            | 0.009623   |            |       |  2.52

Nlocal:           8214 ave        8214 max        8214 min
Histogram: 1 0 0 0 0 0 0 0 0 0
Nghost:           6190 ave        6190 max        6190 min
Histogram: 1 0 0 0 0 0 0 0 0 0
Neighs:         225064 ave      225064 max      225064 min
Histogram: 1 0 0 0 0 0 0 0 0 0

Total # of neighbors = 225064
Ave neighs/atom = 27.400049
Neighbor list builds = 0
Dangerous builds = 0
Total wall time: 0:00:00
LAMMPS (27 Jun 2024)
OMP_NUM_THREADS environment is not set. Defaulting to 1 thread. (src/comm.cpp:98)
  using 1 OpenMP thread(s) per MPI task
Reading data file ...
  orthogonal box = (0 0 0) to (16.186228 171.68088 70.088424)
  1 by 1 by 1 MPI processor grid
  reading atoms ...
  8214 atoms
  read_data CPU = 0.015 seconds
System init for write_data ...
Neighbor list info ...
  update: every = 1 steps, delay = 5 steps, check = yes
  max neighbors/atom: 2000, page size: 100000
  master list distance cutoff = 6.2
  ghost atom cutoff = 6.2
  binsize = 3.1, bins = 6 56 23
  1 neighbor lists, perpetual/occasional/extra = 1 0 0
  (1) pair eam/fs, perpetual
      attributes: half, newton on
      pair build: half/bin/atomonly/newton
      stencil: half/bin/3d
      bin: standard
0 atoms in group ulayer
Deleted 0 atoms, new total = 8214
44 atoms in group lb
360 atoms in group bb
92 atoms in group rb
354 atoms in group ub
Changing box ...
  orthogonal box = (0 0 0) to (16.186228 173.68088 70.088424)

CITE-CITE-CITE-CITE-CITE-CITE-CITE-CITE-CITE-CITE-CITE-CITE-CITE

Your simulation uses code contributions which should be cited:
- Type Label Framework: https://doi.org/10.1021/acs.jpcb.3c08419
The log file lists these citations in BibTeX format.

CITE-CITE-CITE-CITE-CITE-CITE-CITE-CITE-CITE-CITE-CITE-CITE-CITE

Switching to 'neigh_modify every 1 delay 0 check yes' setting during minimization
Setting up cg style minimization ...
  Unit style    : metal
  Current step  : 0
WARNING: A per-atom density exceeded rhomax of EAM potential table - a linear extrapolation to the energy was made (src/MANYBODY/pair_eam.cpp:334)
Per MPI rank memory allocation (min/avg/max) = 5.944 | 5.944 | 5.944 Mbytes
   Step           Lx             Lx             Ly             Lz          Atoms         Temp          PotEng           Lx             Ly             Lz           Press          c_KET          c_PET     
         0   16.186228      16.186228      173.68088      70.088424           8214   2             -70396.281      16.186228      173.68088      70.088424     -135206.41      2.1232271     -70396.281    
         2   16.186228      16.186228      173.68088      70.088424           8214   2             -70410.439      16.186228      173.68088      70.088424     -135012.34      2.1232271     -70410.439    
         4   16.186228      16.186228      173.68088      70.088424           8214   2             -70418.163      16.186228      173.68088      70.088424     -134803.91      2.1232271     -70418.163    
         6   16.186228      16.186228      173.68088      70.088424           8214   2             -70422.414      16.186228      173.68088      70.088424     -134675.48      2.1232271     -70422.414    
         8   16.186228      16.186228      173.68088      70.088424           8214   2             -70423.697      16.186228      173.68088      70.088424     -134667         2.1232271     -70423.697    
        10   16.186228      16.186228      173.68088      70.088424           8214   2             -70424.546      16.186228      173.68088      70.088424     -134661.05      2.1232271     -70424.546    
        12   16.186228      16.186228      173.68088      70.088424           8214   2             -70424.821      16.186228      173.68088      70.088424     -134667.34      2.1232271     -70424.821    
        14   16.186228      16.186228      173.68088      70.088424           8214   2             -70424.951      16.186228      173.68088      70.088424     -134663.35      2.1232271     -70424.951    
        16   16.186228      16.186228      173.68088      70.088424           8214   2             -70425.025      16.186228      173.68088      70.088424     -134660.3       2.1232271     -70425.025    
        18   16.186228      16.186228      173.68088      70.088424           8214   2             -70425.092      16.186228      173.68088      70.088424     -134662.14      2.1232271     -70425.092    
        20   16.186228      16.186228      173.68088      70.088424           8214   2             -70425.138      16.186228      173.68088      70.088424     -134661.91      2.1232271     -70425.138    
        22   16.186228      16.186228      173.68088      70.088424           8214   2             -70425.173      16.186228      173.68088      70.088424     -134659.53      2.1232271     -70425.173    
        24   16.186228      16.186228      173.68088      70.088424           8214   2             -70425.219      16.186228      173.68088      70.088424     -134660.38      2.1232271     -70425.219    
        26   16.186228      16.186228      173.68088      70.088424           8214   2             -70425.23       16.186228      173.68088      70.088424     -134661.13      2.1232271     -70425.23     
        28   16.186228      16.186228      173.68088      70.088424           8214   2             -70425.238      16.186228      173.68088      70.088424     -134662.25      2.1232271     -70425.238    
        30   16.186228      16.186228      173.68088      70.088424           8214   2             -70425.245      16.186228      173.68088      70.088424     -134662.33      2.1232271     -70425.245    
        32   16.186228      16.186228      173.68088      70.088424           8214   2             -70425.25       16.186228      173.68088      70.088424     -134661.67      2.1232271     -70425.25     
        34   16.186228      16.186228      173.68088      70.088424           8214   2             -70425.252      16.186228      173.68088      70.088424     -134661.8       2.1232271     -70425.252    
        36   16.186228      16.186228      173.68088      70.088424           8214   2             -70425.261      16.186228      173.68088      70.088424     -134662.14      2.1232271     -70425.261    
        38   16.186228      16.186228      173.68088      70.088424           8214   2             -70425.271      16.186228      173.68088      70.088424     -134661.92      2.1232271     -70425.271    
        40   16.186228      16.186228      173.68088      70.088424           8214   2             -70425.274      16.186228      173.68088      70.088424     -134662.03      2.1232271     -70425.274    
        42   16.186228      16.186228      173.68088      70.088424           8214   2             -70425.275      16.186228      173.68088      70.088424     -134661.79      2.1232271     -70425.275    
Loop time of 0.375454 on 1 procs for 42 steps with 8214 atoms

100.0% CPU use with 1 MPI tasks x 1 OpenMP threads

Minimization stats:
  Stopping criterion = energy tolerance
  Energy initial, next-to-last, final = 
     -70396.2808074685   -70425.274641876  -70425.2753111536
  Force two-norm initial, final = 17.159256 0.048988485
  Force max component initial, final = 3.2242369 0.0030965452
  Final line search alpha, max atom move = 0.25 0.0007741363
  Iterations, force evaluations = 42 108

MPI task timing breakdown:
Section |  min time  |  avg time  |  max time  |%varavg| %total
---------------------------------------------------------------
Pair    | 0.36021    | 0.36021    | 0.36021    |   0.0 | 95.94
Neigh   | 0          | 0          | 0          |   0.0 |  0.00
Comm    | 0.0025092  | 0.0025092  | 0.0025092  |   0.0 |  0.67
Output  | 0.0011799  | 0.0011799  | 0.0011799  |   0.0 |  0.31
Modify  | 0.0020913  | 0.0020913  | 0.0020913  |   0.0 |  0.56
Other   |            | 0.00946    |            |       |  2.52

Nlocal:           8214 ave        8214 max        8214 min
Histogram: 1 0 0 0 0 0 0 0 0 0
Nghost:           6190 ave        6190 max        6190 min
Histogram: 1 0 0 0 0 0 0 0 0 0
Neighs:         225064 ave      225064 max      225064 min
Histogram: 1 0 0 0 0 0 0 0 0 0

Total # of neighbors = 225064
Ave neighs/atom = 27.400049
Neighbor list builds = 0
Dangerous builds = 0
Total wall time: 0:00:00
LAMMPS (27 Jun 2024)
OMP_NUM_THREADS environment is not set. Defaulting to 1 thread. (src/comm.cpp:98)
  using 1 OpenMP thread(s) per MPI task
Reading data file ...
  orthogonal box = (0 0 0) to (16.186228 171.68088 70.088424)
  1 by 1 by 1 MPI processor grid
  reading atoms ...
  8214 atoms
  read_data CPU = 0.013 seconds
System init for write_data ...
Neighbor list info ...
  update: every = 1 steps, delay = 5 steps, check = yes
  max neighbors/atom: 2000, page size: 100000
  master list distance cutoff = 6.2
  ghost atom cutoff = 6.2
  binsize = 3.1, bins = 6 56 23
  1 neighbor lists, perpetual/occasional/extra = 1 0 0
  (1) pair eam/fs, perpetual
      attributes: half, newton on
      pair build: half/bin/atomonly/newton
      stencil: half/bin/3d
      bin: standard
0 atoms in group ulayer
Deleted 0 atoms, new total = 8214
44 atoms in group lb
360 atoms in group bb
92 atoms in group rb
354 atoms in group ub
Changing box ...
  orthogonal box = (0 0 0) to (16.186228 173.68088 70.088424)

CITE-CITE-CITE-CITE-CITE-CITE-CITE-CITE-CITE-CITE-CITE-CITE-CITE

Your simulation uses code contributions which should be cited:
- Type Label Framework: https://doi.org/10.1021/acs.jpcb.3c08419
The log file lists these citations in BibTeX format.

CITE-CITE-CITE-CITE-CITE-CITE-CITE-CITE-CITE-CITE-CITE-CITE-CITE

Switching to 'neigh_modify every 1 delay 0 check yes' setting during minimization
Setting up cg style minimization ...
  Unit style    : metal
  Current step  : 0
WARNING: A per-atom density exceeded rhomax of EAM potential table - a linear extrapolation to the energy was made (src/MANYBODY/pair_eam.cpp:334)
Per MPI rank memory allocation (min/avg/max) = 5.944 | 5.944 | 5.944 Mbytes
   Step           Lx             Lx             Ly             Lz          Atoms         Temp          PotEng           Lx             Ly             Lz           Press          c_KET          c_PET     
         0   16.186228      16.186228      173.68088      70.088424           8214   2             -71135.073      16.186228      173.68088      70.088424     -145366.89      2.1232271     -71135.073    
         2   16.186228      16.186228      173.68088      70.088424           8214   2             -71149.405      16.186228      173.68088      70.088424     -145161.09      2.1232271     -71149.405    
         4   16.186228      16.186228      173.68088      70.088424           8214   2             -71157.194      16.186228      173.68088      70.088424     -144938.47      2.1232271     -71157.194    
         6   16.186228      16.186228      173.68088      70.088424           8214   2             -71161.435      16.186228      173.68088      70.088424     -144795.77      2.1232271     -71161.435    
         8   16.186228      16.186228      173.68088      70.088424           8214   2             -71162.707      16.186228      173.68088      70.088424     -144781.44      2.1232271     -71162.707    
        10   16.186228      16.186228      173.68088      70.088424           8214   2             -71163.557      16.186228      173.68088      70.088424     -144768.61      2.1232271     -71163.557    
        12   16.186228      16.186228      173.68088      70.088424           8214   2             -71163.834      16.186228      173.68088      70.088424     -144775.36      2.1232271     -71163.834    
        14   16.186228      16.186228      173.68088      70.088424           8214   2             -71163.965      16.186228      173.68088      70.088424     -144770.58      2.1232271     -71163.965    
        16   16.186228      16.186228      173.68088      70.088424           8214   2             -71164.028      16.186228      173.68088      70.088424     -144765.51      2.1232271     -71164.028    
        18   16.186228      16.186228      173.68088      70.088424           8214   2             -71164.097      16.186228      173.68088      70.088424     -144768.4       2.1232271     -71164.097    
        20   16.186228      16.186228      173.68088      70.088424           8214   2             -71164.138      16.186228      173.68088      70.088424     -144766.99      2.1232271     -71164.138    
        22   16.186228      16.186228      173.68088      70.088424           8214   2             -71164.179      16.186228      173.68088      70.088424     -144764.2       2.1232271     -71164.179    
        24   16.186228      16.186228      173.68088      70.088424           8214   2             -71164.202      16.186228      173.68088      70.088424     -144764.79      2.1232271     -71164.202    
        26   16.186228      16.186228      173.68088      70.088424           8214   2             -71164.225      16.186228      173.68088      70.088424     -144764.88      2.1232271     -71164.225    
        28   16.186228      16.186228      173.68088      70.088424           8214   2             -71164.239      16.186228      173.68088      70.088424     -144764.6       2.1232271     -71164.239    
        30   16.186228      16.186228      173.68088      70.088424           8214   2             -71164.244      16.186228      173.68088      70.088424     -144764.79      2.1232271     -71164.244    
        32   16.186228      16.186228      173.68088      70.088424           8214   2             -71164.247      16.186228      173.68088      70.088424     -144765.05      2.1232271     -71164.247    
        34   16.186228      16.186228      173.68088      70.088424           8214   2             -71164.257      16.186228      173.68088      70.088424     -144764.17      2.1232271     -71164.257    
        36   16.186228      16.186228      173.68088      70.088424           8214   2             -71164.265      16.186228      173.68088      70.088424     -144764.71      2.1232271     -71164.265    
        38   16.186228      16.186228      173.68088      70.088424           8214   2             -71164.266      16.186228      173.68088      70.088424     -144764.71      2.1232271     -71164.266    
Loop time of 0.337378 on 1 procs for 38 steps with 8214 atoms

96.0% CPU use with 1 MPI tasks x 1 OpenMP threads

Minimization stats:
  Stopping criterion = energy tolerance
  Energy initial, next-to-last, final = 
     -71135.0730026383  -71164.2655860077  -71164.2660374903
  Force two-norm initial, final = 17.198306 0.037571317
  Force max component initial, final = 3.1990442 0.0020552886
  Final line search alpha, max atom move = 0.125 0.00025691108
  Iterations, force evaluations = 38 98

MPI task timing breakdown:
Section |  min time  |  avg time  |  max time  |%varavg| %total
---------------------------------------------------------------
Pair    | 0.32386    | 0.32386    | 0.32386    |   0.0 | 95.99
Neigh   | 0          | 0          | 0          |   0.0 |  0.00
Comm    | 0.0022478  | 0.0022478  | 0.0022478  |   0.0 |  0.67
Output  | 0.00096872 | 0.00096872 | 0.00096872 |   0.0 |  0.29
Modify  | 0.0018254  | 0.0018254  | 0.0018254  |   0.0 |  0.54
Other   |            | 0.008475   |            |       |  2.51

Nlocal:           8214 ave        8214 max        8214 min
Histogram: 1 0 0 0 0 0 0 0 0 0
Nghost:           6190 ave        6190 max        6190 min
Histogram: 1 0 0 0 0 0 0 0 0 0
Neighs:         225064 ave      225064 max      225064 min
Histogram: 1 0 0 0 0 0 0 0 0 0

Total # of neighbors = 225064
Ave neighs/atom = 27.400049
Neighbor list builds = 0
Dangerous builds = 0
Total wall time: 0:00:00
LAMMPS (27 Jun 2024)
OMP_NUM_THREADS environment is not set. Defaulting to 1 thread. (src/comm.cpp:98)
  using 1 OpenMP thread(s) per MPI task
Reading data file ...
  orthogonal box = (0 0 0) to (16.186228 171.68088 70.088424)
  1 by 1 by 1 MPI processor grid
  reading atoms ...
  8214 atoms
  read_data CPU = 0.014 seconds
System init for write_data ...
Neighbor list info ...
  update: every = 1 steps, delay = 5 steps, check = yes
  max neighbors/atom: 2000, page size: 100000
  master list distance cutoff = 6.2
  ghost atom cutoff = 6.2
  binsize = 3.1, bins = 6 56 23
  1 neighbor lists, perpetual/occasional/extra = 1 0 0
  (1) pair eam/fs, perpetual
      attributes: half, newton on
      pair build: half/bin/atomonly/newton
      stencil: half/bin/3d
      bin: standard
0 atoms in group ulayer
Deleted 0 atoms, new total = 8214
44 atoms in group lb
360 atoms in group bb
92 atoms in group rb
354 atoms in group ub
Changing box ...
  orthogonal box = (0 0 0) to (16.186228 173.68088 70.088424)

CITE-CITE-CITE-CITE-CITE-CITE-CITE-CITE-CITE-CITE-CITE-CITE-CITE

Your simulation uses code contributions which should be cited:
- Type Label Framework: https://doi.org/10.1021/acs.jpcb.3c08419
The log file lists these citations in BibTeX format.

CITE-CITE-CITE-CITE-CITE-CITE-CITE-CITE-CITE-CITE-CITE-CITE-CITE

Switching to 'neigh_modify every 1 delay 0 check yes' setting during minimization
Setting up cg style minimization ...
  Unit style    : metal
  Current step  : 0
WARNING: A per-atom density exceeded rhomax of EAM potential table - a linear extrapolation to the energy was made (src/MANYBODY/pair_eam.cpp:334)
Per MPI rank memory allocation (min/avg/max) = 5.944 | 5.944 | 5.944 Mbytes
   Step           Lx             Lx             Ly             Lz          Atoms         Temp          PotEng           Lx             Ly             Lz           Press          c_KET          c_PET     
         0   16.186228      16.186228      173.68088      70.088424           8214   2             -71832.469      16.186228      173.68088      70.088424     -151525.12      2.1232271     -71832.469    
         2   16.186228      16.186228      173.68088      70.088424           8214   2             -71846.932      16.186228      173.68088      70.088424     -151311.88      2.1232271     -71846.932    
         4   16.186228      16.186228      173.68088      70.088424           8214   2             -71854.774      16.186228      173.68088      70.088424     -151080.35      2.1232271     -71854.774    
         6   16.186228      16.186228      173.68088      70.088424           8214   2             -71859.021      16.186228      173.68088      70.088424     -150928.2       2.1232271     -71859.021    
         8   16.186228      16.186228      173.68088      70.088424           8214   2             -71860.287      16.186228      173.68088      70.088424     -150910.15      2.1232271     -71860.287    
        10   16.186228      16.186228      173.68088      70.088424           8214   2             -71861.137      16.186228      173.68088      70.088424     -150893.16      2.1232271     -71861.137    
        12   16.186228      16.186228      173.68088      70.088424           8214   2             -71861.438      16.186228      173.68088      70.088424     -150899.5       2.1232271     -71861.438    
        14   16.186228      16.186228      173.68088      70.088424           8214   2             -71861.554      16.186228      173.68088      70.088424     -150894.51      2.1232271     -71861.554    
        16   16.186228      16.186228      173.68088      70.088424           8214   2             -71861.614      16.186228      173.68088      70.088424     -150889         2.1232271     -71861.614    
        18   16.186228      16.186228      173.68088      70.088424           8214   2             -71861.677      16.186228      173.68088      70.088424     -150891.73      2.1232271     -71861.677    
        20   16.186228      16.186228      173.68088      70.088424           8214   2             -71861.717      16.186228      173.68088      70.088424     -150890.39      2.1232271     -71861.717    
        22   16.186228      16.186228      173.68088      70.088424           8214   2             -71861.747      16.186228      173.68088      70.088424     -150887.16      2.1232271     -71861.747    
        24   16.186228      16.186228      173.68088      70.088424           8214   2             -71861.772      16.186228      173.68088      70.088424     -150887.37      2.1232271     -71861.772    
        26   16.186228      16.186228      173.68088      70.088424           8214   2             -71861.798      16.186228      173.68088      70.088424     -150888.9       2.1232271     -71861.798    
        28   16.186228      16.186228      173.68088      70.088424           8214   2             -71861.82       16.186228      173.68088      70.088424     -150887.08      2.1232271     -71861.82     
        30   16.186228      16.186228      173.68088      70.088424           8214   2             -71861.823      16.186228      173.68088      70.088424     -150886.46      2.1232271     -71861.823    
        32   16.186228      16.186228      173.68088      70.088424           8214   2             -71861.825      16.186228      173.68088      70.088424     -150886.21      2.1232271     -71861.825    
        34   16.186228      16.186228      173.68088      70.088424           8214   2             -71861.828      16.186228      173.68088      70.088424     -150886.57      2.1232271     -71861.828    
        36   16.186228      16.186228      173.68088      70.088424           8214   2             -71861.831      16.186228      173.68088      70.088424     -150886.61      2.1232271     -71861.831    
        38   16.186228      16.186228      173.68088      70.088424           8214   2             -71861.835      16.186228      173.68088      70.088424     -150886.68      2.1232271     -71861.835    
        40   16.186228      16.186228      173.68088      70.088424           8214   2             -71861.839      16.186228      173.68088      70.088424     -150886.47      2.1232271     -71861.839    
        41   16.186228      16.186228      173.68088      70.088424           8214   2             -71861.839      16.186228      173.68088      70.088424     -150886.57      2.1232271     -71861.839    
Loop time of 0.425651 on 1 procs for 41 steps with 8214 atoms

94.1% CPU use with 1 MPI tasks x 1 OpenMP threads

Minimization stats:
  Stopping criterion = energy tolerance
  Energy initial, next-to-last, final = 
     -71832.4692993105  -71861.8387076558  -71861.8390534397
  Force two-norm initial, final = 17.333227 0.030065482
  Force max component initial, final = 3.2197684 0.0016765265
  Final line search alpha, max atom move = 0.125 0.00020956581
  Iterations, force evaluations = 41 106

MPI task timing breakdown:
Section |  min time  |  avg time  |  max time  |%varavg| %total
---------------------------------------------------------------
Pair    | 0.40834    | 0.40834    | 0.40834    |   0.0 | 95.93
Neigh   | 0          | 0          | 0          |   0.0 |  0.00
Comm    | 0.0027912  | 0.0027912  | 0.0027912  |   0.0 |  0.66
Output  | 0.0014786  | 0.0014786  | 0.0014786  |   0.0 |  0.35
Modify  | 0.0024384  | 0.0024384  | 0.0024384  |   0.0 |  0.57
Other   |            | 0.01061    |            |       |  2.49

Nlocal:           8214 ave        8214 max        8214 min
Histogram: 1 0 0 0 0 0 0 0 0 0
Nghost:           6190 ave        6190 max        6190 min
Histogram: 1 0 0 0 0 0 0 0 0 0
Neighs:         225064 ave      225064 max      225064 min
Histogram: 1 0 0 0 0 0 0 0 0 0

Total # of neighbors = 225064
Ave neighs/atom = 27.400049
Neighbor list builds = 0
Dangerous builds = 0
Total wall time: 0:00:00
LAMMPS (27 Jun 2024)
OMP_NUM_THREADS environment is not set. Defaulting to 1 thread. (src/comm.cpp:98)
  using 1 OpenMP thread(s) per MPI task
Reading data file ...
  orthogonal box = (0 0 0) to (16.186228 171.68088 70.088424)
  1 by 1 by 1 MPI processor grid
  reading atoms ...
  8214 atoms
  read_data CPU = 0.013 seconds
System init for write_data ...
Neighbor list info ...
  update: every = 1 steps, delay = 5 steps, check = yes
  max neighbors/atom: 2000, page size: 100000
  master list distance cutoff = 6.2
  ghost atom cutoff = 6.2
  binsize = 3.1, bins = 6 56 23
  1 neighbor lists, perpetual/occasional/extra = 1 0 0
  (1) pair eam/fs, perpetual
      attributes: half, newton on
      pair build: half/bin/atomonly/newton
      stencil: half/bin/3d
      bin: standard
0 atoms in group ulayer
Deleted 0 atoms, new total = 8214
44 atoms in group lb
360 atoms in group bb
92 atoms in group rb
354 atoms in group ub
Changing box ...
  orthogonal box = (0 0 0) to (16.186228 173.68088 70.088424)

CITE-CITE-CITE-CITE-CITE-CITE-CITE-CITE-CITE-CITE-CITE-CITE-CITE

Your simulation uses code contributions which should be cited:
- Type Label Framework: https://doi.org/10.1021/acs.jpcb.3c08419
The log file lists these citations in BibTeX format.

CITE-CITE-CITE-CITE-CITE-CITE-CITE-CITE-CITE-CITE-CITE-CITE-CITE

Switching to 'neigh_modify every 1 delay 0 check yes' setting during minimization
Setting up cg style minimization ...
  Unit style    : metal
  Current step  : 0
WARNING: A per-atom density exceeded rhomax of EAM potential table - a linear extrapolation to the energy was made (src/MANYBODY/pair_eam.cpp:334)
Per MPI rank memory allocation (min/avg/max) = 5.944 | 5.944 | 5.944 Mbytes
   Step           Lx             Lx             Ly             Lz          Atoms         Temp          PotEng           Lx             Ly             Lz           Press          c_KET          c_PET     
         0   16.186228      16.186228      173.68088      70.088424           8214   2             -71011.38       16.186228      173.68088      70.088424     -143951.39      2.1232271     -71011.38     
         2   16.186228      16.186228      173.68088      70.088424           8214   2             -71025.685      16.186228      173.68088      70.088424     -143747.16      2.1232271     -71025.685    
         4   16.186228      16.186228      173.68088      70.088424           8214   2             -71033.459      16.186228      173.68088      70.088424     -143526.53      2.1232271     -71033.459    
         6   16.186228      16.186228      173.68088      70.088424           8214   2             -71037.698      16.186228      173.68088      70.088424     -143385.93      2.1232271     -71037.698    
         8   16.186228      16.186228      173.68088      70.088424           8214   2             -71038.97       16.186228      173.68088      70.088424     -143372.4       2.1232271     -71038.97     
        10   16.186228      16.186228      173.68088      70.088424           8214   2             -71039.82       16.186228      173.68088      70.088424     -143360.55      2.1232271     -71039.82     
        12   16.186228      16.186228      173.68088      70.088424           8214   2             -71040.098      16.186228      173.68088      70.088424     -143367.28      2.1232271     -71040.098    
        14   16.186228      16.186228      173.68088      70.088424           8214   2             -71040.228      16.186228      173.68088      70.088424     -143362.6       2.1232271     -71040.228    
        16   16.186228      16.186228      173.68088      70.088424           8214   2             -71040.292      16.186228      173.68088      70.088424     -143357.8       2.1232271     -71040.292    
        18   16.186228      16.186228      173.68088      70.088424           8214   2             -71040.359      16.186228      173.68088      70.088424     -143360.39      2.1232271     -71040.359    
        20   16.186228      16.186228      173.68088      70.088424           8214   2             -71040.399      16.186228      173.68088      70.088424     -143359.44      2.1232271     -71040.399    
        22   16.186228      16.186228      173.68088      70.088424           8214   2             -71040.438      16.186228      173.68088      70.088424     -143356.61      2.1232271     -71040.438    
        24   16.186228      16.186228      173.68088      70.088424           8214   2             -71040.456      16.186228      173.68088      70.088424     -143357.27      2.1232271     -71040.456    
        26   16.186228      16.186228      173.68088      70.088424           8214   2             -71040.466      16.186228      173.68088      70.088424     -143357.67      2.1232271     -71040.466    
        28   16.186228      16.186228      173.68088      70.088424           8214   2             -71040.498      16.186228      173.68088      70.088424     -143359.72      2.1232271     -71040.498    
        30   16.186228      16.186228      173.68088      70.088424           8214   2             -71040.51       16.186228      173.68088      70.088424     -143357.89      2.1232271     -71040.51     
        32   16.186228      16.186228      173.68088      70.088424           8214   2             -71040.516      16.186228      173.68088      70.088424     -143358.27      2.1232271     -71040.516    
        34   16.186228      16.186228      173.68088      70.088424           8214   2             -71040.523      16.186228      173.68088      70.088424     -143357.42      2.1232271     -71040.523    
        36   16.186228      16.186228      173.68088      70.088424           8214   2             -71040.524      16.186228      173.68088      70.088424     -143357.31      2.1232271     -71040.524    
Loop time of 0.341406 on 1 procs for 36 steps with 8214 atoms

98.4% CPU use with 1 MPI tasks x 1 OpenMP threads

Minimization stats:
  Stopping criterion = energy tolerance
  Energy initial, next-to-last, final = 
     -71011.3802451088  -71040.5235148451  -71040.5241595303
  Force two-norm initial, final = 17.175055 0.072302642
  Force max component initial, final = 3.1957537 0.00711956
  Final line search alpha, max atom move = 0.25 0.00177989
  Iterations, force evaluations = 36 92

MPI task timing breakdown:
Section |  min time  |  avg time  |  max time  |%varavg| %total
---------------------------------------------------------------
Pair    | 0.32638    | 0.32638    | 0.32638    |   0.0 | 95.60
Neigh   | 0          | 0          | 0          |   0.0 |  0.00
Comm    | 0.0023908  | 0.0023908  | 0.0023908  |   0.0 |  0.70
Output  | 0.0010477  | 0.0010477  | 0.0010477  |   0.0 |  0.31
Modify  | 0.0019748  | 0.0019748  | 0.0019748  |   0.0 |  0.58
Other   |            | 0.009616   |            |       |  2.82

Nlocal:           8214 ave        8214 max        8214 min
Histogram: 1 0 0 0 0 0 0 0 0 0
Nghost:           6190 ave        6190 max        6190 min
Histogram: 1 0 0 0 0 0 0 0 0 0
Neighs:         225064 ave      225064 max      225064 min
Histogram: 1 0 0 0 0 0 0 0 0 0

Total # of neighbors = 225064
Ave neighs/atom = 27.400049
Neighbor list builds = 0
Dangerous builds = 0
Total wall time: 0:00:00
LAMMPS (27 Jun 2024)
OMP_NUM_THREADS environment is not set. Defaulting to 1 thread. (src/comm.cpp:98)
  using 1 OpenMP thread(s) per MPI task
Reading data file ...
  orthogonal box = (0 0 0) to (16.186228 171.68088 70.088424)
  1 by 1 by 1 MPI processor grid
  reading atoms ...
  8214 atoms
  read_data CPU = 0.013 seconds
System init for write_data ...
Neighbor list info ...
  update: every = 1 steps, delay = 5 steps, check = yes
  max neighbors/atom: 2000, page size: 100000
  master list distance cutoff = 6.2
  ghost atom cutoff = 6.2
  binsize = 3.1, bins = 6 56 23
  1 neighbor lists, perpetual/occasional/extra = 1 0 0
  (1) pair eam/fs, perpetual
      attributes: half, newton on
      pair build: half/bin/atomonly/newton
      stencil: half/bin/3d
      bin: standard
0 atoms in group ulayer
Deleted 0 atoms, new total = 8214
44 atoms in group lb
360 atoms in group bb
92 atoms in group rb
354 atoms in group ub
Changing box ...
  orthogonal box = (0 0 0) to (16.186228 173.68088 70.088424)

CITE-CITE-CITE-CITE-CITE-CITE-CITE-CITE-CITE-CITE-CITE-CITE-CITE

Your simulation uses code contributions which should be cited:
- Type Label Framework: https://doi.org/10.1021/acs.jpcb.3c08419
The log file lists these citations in BibTeX format.

CITE-CITE-CITE-CITE-CITE-CITE-CITE-CITE-CITE-CITE-CITE-CITE-CITE

Switching to 'neigh_modify every 1 delay 0 check yes' setting during minimization
Setting up cg style minimization ...
  Unit style    : metal
  Current step  : 0
WARNING: A per-atom density exceeded rhomax of EAM potential table - a linear extrapolation to the energy was made (src/MANYBODY/pair_eam.cpp:334)
Per MPI rank memory allocation (min/avg/max) = 5.944 | 5.944 | 5.944 Mbytes
   Step           Lx             Lx             Ly             Lz          Atoms         Temp          PotEng           Lx             Ly             Lz           Press          c_KET          c_PET     
         0   16.186228      16.186228      173.68088      70.088424           8214   2             -71035.796      16.186228      173.68088      70.088424     -144229.91      2.1232271     -71035.796    
         2   16.186228      16.186228      173.68088      70.088424           8214   2             -71050.107      16.186228      173.68088      70.088424     -144025.36      2.1232271     -71050.107    
         4   16.186228      16.186228      173.68088      70.088424           8214   2             -71057.884      16.186228      173.68088      70.088424     -143804.34      2.1232271     -71057.884    
         6   16.186228      16.186228      173.68088      70.088424           8214   2             -71062.122      16.186228      173.68088      70.088424     -143663.33      2.1232271     -71062.122    
         8   16.186228      16.186228      173.68088      70.088424           8214   2             -71063.395      16.186228      173.68088      70.088424     -143649.65      2.1232271     -71063.395    
        10   16.186228      16.186228      173.68088      70.088424           8214   2             -71064.245      16.186228      173.68088      70.088424     -143637.6       2.1232271     -71064.245    
        12   16.186228      16.186228      173.68088      70.088424           8214   2             -71064.523      16.186228      173.68088      70.088424     -143644.33      2.1232271     -71064.523    
        14   16.186228      16.186228      173.68088      70.088424           8214   2             -71064.652      16.186228      173.68088      70.088424     -143639.63      2.1232271     -71064.652    
        16   16.186228      16.186228      173.68088      70.088424           8214   2             -71064.716      16.186228      173.68088      70.088424     -143634.78      2.1232271     -71064.716    
        18   16.186228      16.186228      173.68088      70.088424           8214   2             -71064.784      16.186228      173.68088      70.088424     -143637.43      2.1232271     -71064.784    
        20   16.186228      16.186228      173.68088      70.088424           8214   2             -71064.824      16.186228      173.68088      70.088424     -143636.4       2.1232271     -71064.824    
        22   16.186228      16.186228      173.68088      70.088424           8214   2             -71064.863      16.186228      173.68088      70.088424     -143633.57      2.1232271     -71064.863    
        24   16.186228      16.186228      173.68088      70.088424           8214   2             -71064.889      16.186228      173.68088      70.088424     -143634.57      2.1232271     -71064.889    
        26   16.186228      16.186228      173.68088      70.088424           8214   2             -71064.913      16.186228      173.68088      70.088424     -143634.09      2.1232271     -71064.913    
        28   16.186228      16.186228      173.68088      70.088424           8214   2             -71064.928      16.186228      173.68088      70.088424     -143634.34      2.1232271     -71064.928    
        30   16.186228      16.186228      173.68088      70.088424           8214   2             -71064.938      16.186228      173.68088      70.088424     -143634.01      2.1232271     -71064.938    
        32   16.186228      16.186228      173.68088      70.088424           8214   2             -71064.943      16.186228      173.68088      70.088424     -143634.22      2.1232271     -71064.943    
        33   16.186228      16.186228      173.68088      70.088424           8214   2             -71064.944      16.186228      173.68088      70.088424     -143634.23      2.1232271     -71064.944    
Loop time of 0.289229 on 1 procs for 33 steps with 8214 atoms

100.0% CPU use with 1 MPI tasks x 1 OpenMP threads

Minimization stats:
  Stopping criterion = energy tolerance
  Energy initial, next-to-last, final = 
     -71035.7963373562  -71064.9430048556  -71064.9436885365
  Force two-norm initial, final = 17.179623 0.058374547
  Force max component initial, final = 3.1964015 0.0033230802
  Final line search alpha, max atom move = 0.25 0.00083077004
  Iterations, force evaluations = 33 83

MPI task timing breakdown:
Section |  min time  |  avg time  |  max time  |%varavg| %total
---------------------------------------------------------------
Pair    | 0.27759    | 0.27759    | 0.27759    |   0.0 | 95.98
Neigh   | 0          | 0          | 0          |   0.0 |  0.00
Comm    | 0.001904   | 0.001904   | 0.001904   |   0.0 |  0.66
Output  | 0.00092123 | 0.00092123 | 0.00092123 |   0.0 |  0.32
Modify  | 0.001634   | 0.001634   | 0.001634   |   0.0 |  0.56
Other   |            | 0.007182   |            |       |  2.48

Nlocal:           8214 ave        8214 max        8214 min
Histogram: 1 0 0 0 0 0 0 0 0 0
Nghost:           6190 ave        6190 max        6190 min
Histogram: 1 0 0 0 0 0 0 0 0 0
Neighs:         225064 ave      225064 max      225064 min
Histogram: 1 0 0 0 0 0 0 0 0 0

Total # of neighbors = 225064
Ave neighs/atom = 27.400049
Neighbor list builds = 0
Dangerous builds = 0
Total wall time: 0:00:00
LAMMPS (27 Jun 2024)
OMP_NUM_THREADS environment is not set. Defaulting to 1 thread. (src/comm.cpp:98)
  using 1 OpenMP thread(s) per MPI task
Reading data file ...
  orthogonal box = (0 0 0) to (16.186228 171.68088 70.088424)
  1 by 1 by 1 MPI processor grid
  reading atoms ...
  8214 atoms
  read_data CPU = 0.013 seconds
System init for write_data ...
Neighbor list info ...
  update: every = 1 steps, delay = 5 steps, check = yes
  max neighbors/atom: 2000, page size: 100000
  master list distance cutoff = 6.2
  ghost atom cutoff = 6.2
  binsize = 3.1, bins = 6 56 23
  1 neighbor lists, perpetual/occasional/extra = 1 0 0
  (1) pair eam/fs, perpetual
      attributes: half, newton on
      pair build: half/bin/atomonly/newton
      stencil: half/bin/3d
      bin: standard
0 atoms in group ulayer
Deleted 0 atoms, new total = 8214
44 atoms in group lb
360 atoms in group bb
92 atoms in group rb
354 atoms in group ub
Changing box ...
  orthogonal box = (0 0 0) to (16.186228 173.68088 70.088424)

CITE-CITE-CITE-CITE-CITE-CITE-CITE-CITE-CITE-CITE-CITE-CITE-CITE

Your simulation uses code contributions which should be cited:
- Type Label Framework: https://doi.org/10.1021/acs.jpcb.3c08419
The log file lists these citations in BibTeX format.

CITE-CITE-CITE-CITE-CITE-CITE-CITE-CITE-CITE-CITE-CITE-CITE-CITE

Switching to 'neigh_modify every 1 delay 0 check yes' setting during minimization
Setting up cg style minimization ...
  Unit style    : metal
  Current step  : 0
WARNING: A per-atom density exceeded rhomax of EAM potential table - a linear extrapolation to the energy was made (src/MANYBODY/pair_eam.cpp:334)
Per MPI rank memory allocation (min/avg/max) = 5.944 | 5.944 | 5.944 Mbytes
   Step           Lx             Lx             Ly             Lz          Atoms         Temp          PotEng           Lx             Ly             Lz           Press          c_KET          c_PET     
         0   16.186228      16.186228      173.68088      70.088424           8214   2             -71049.504      16.186228      173.68088      70.088424     -144386.27      2.1232271     -71049.504    
         2   16.186228      16.186228      173.68088      70.088424           8214   2             -71063.817      16.186228      173.68088      70.088424     -144181.55      2.1232271     -71063.817    
         4   16.186228      16.186228      173.68088      70.088424           8214   2             -71071.596      16.186228      173.68088      70.088424     -143960.31      2.1232271     -71071.596    
         6   16.186228      16.186228      173.68088      70.088424           8214   2             -71075.835      16.186228      173.68088      70.088424     -143819.07      2.1232271     -71075.835    
         8   16.186228      16.186228      173.68088      70.088424           8214   2             -71077.107      16.186228      173.68088      70.088424     -143805.29      2.1232271     -71077.107    
        10   16.186228      16.186228      173.68088      70.088424           8214   2             -71077.957      16.186228      173.68088      70.088424     -143793.14      2.1232271     -71077.957    
        12   16.186228      16.186228      173.68088      70.088424           8214   2             -71078.235      16.186228      173.68088      70.088424     -143799.88      2.1232271     -71078.235    
        14   16.186228      16.186228      173.68088      70.088424           8214   2             -71078.365      16.186228      173.68088      70.088424     -143795.16      2.1232271     -71078.365    
        16   16.186228      16.186228      173.68088      70.088424           8214   2             -71078.429      16.186228      173.68088      70.088424     -143790.28      2.1232271     -71078.429    
        18   16.186228      16.186228      173.68088      70.088424           8214   2             -71078.496      16.186228      173.68088      70.088424     -143792.96      2.1232271     -71078.496    
        20   16.186228      16.186228      173.68088      70.088424           8214   2             -71078.537      16.186228      173.68088      70.088424     -143791.89      2.1232271     -71078.537    
        22   16.186228      16.186228      173.68088      70.088424           8214   2             -71078.576      16.186228      173.68088      70.088424     -143789.06      2.1232271     -71078.576    
        24   16.186228      16.186228      173.68088      70.088424           8214   2             -71078.602      16.186228      173.68088      70.088424     -143789.99      2.1232271     -71078.602    
        26   16.186228      16.186228      173.68088      70.088424           8214   2             -71078.624      16.186228      173.68088      70.088424     -143789.63      2.1232271     -71078.624    
        28   16.186228      16.186228      173.68088      70.088424           8214   2             -71078.64       16.186228      173.68088      70.088424     -143789.76      2.1232271     -71078.64     
        30   16.186228      16.186228      173.68088      70.088424           8214   2             -71078.65       16.186228      173.68088      70.088424     -143789.55      2.1232271     -71078.65     
        32   16.186228      16.186228      173.68088      70.088424           8214   2             -71078.656      16.186228      173.68088      70.088424     -143790.11      2.1232271     -71078.656    
        34   16.186228      16.186228      173.68088      70.088424           8214   2             -71078.662      16.186228      173.68088      70.088424     -143789.4       2.1232271     -71078.662    
        36   16.186228      16.186228      173.68088      70.088424           8214   2             -71078.663      16.186228      173.68088      70.088424     -143789.68      2.1232271     -71078.663    
Loop time of 0.313431 on 1 procs for 36 steps with 8214 atoms

99.0% CPU use with 1 MPI tasks x 1 OpenMP threads

Minimization stats:
  Stopping criterion = energy tolerance
  Energy initial, next-to-last, final = 
     -71049.5037692057  -71078.6629119244    -71078.66339842
  Force two-norm initial, final = 17.182191 0.049641342
  Force max component initial, final = 3.1967652 0.0031010792
  Final line search alpha, max atom move = 0.25 0.00077526981
  Iterations, force evaluations = 36 92

MPI task timing breakdown:
Section |  min time  |  avg time  |  max time  |%varavg| %total
---------------------------------------------------------------
Pair    | 0.30071    | 0.30071    | 0.30071    |   0.0 | 95.94
Neigh   | 0          | 0          | 0          |   0.0 |  0.00
Comm    | 0.0021278  | 0.0021278  | 0.0021278  |   0.0 |  0.68
Output  | 0.00091352 | 0.00091352 | 0.00091352 |   0.0 |  0.29
Modify  | 0.0017315  | 0.0017315  | 0.0017315  |   0.0 |  0.55
Other   |            | 0.007943   |            |       |  2.53

Nlocal:           8214 ave        8214 max        8214 min
Histogram: 1 0 0 0 0 0 0 0 0 0
Nghost:           6190 ave        6190 max        6190 min
Histogram: 1 0 0 0 0 0 0 0 0 0
Neighs:         225064 ave      225064 max      225064 min
Histogram: 1 0 0 0 0 0 0 0 0 0

Total # of neighbors = 225064
Ave neighs/atom = 27.400049
Neighbor list builds = 0
Dangerous builds = 0
Total wall time: 0:00:00
LAMMPS (27 Jun 2024)
OMP_NUM_THREADS environment is not set. Defaulting to 1 thread. (src/comm.cpp:98)
  using 1 OpenMP thread(s) per MPI task
Reading data file ...
  orthogonal box = (0 0 0) to (16.186228 171.68088 70.088424)
  1 by 1 by 1 MPI processor grid
  reading atoms ...
  8214 atoms
  read_data CPU = 0.013 seconds
System init for write_data ...
Neighbor list info ...
  update: every = 1 steps, delay = 5 steps, check = yes
  max neighbors/atom: 2000, page size: 100000
  master list distance cutoff = 6.2
  ghost atom cutoff = 6.2
  binsize = 3.1, bins = 6 56 23
  1 neighbor lists, perpetual/occasional/extra = 1 0 0
  (1) pair eam/fs, perpetual
      attributes: half, newton on
      pair build: half/bin/atomonly/newton
      stencil: half/bin/3d
      bin: standard
0 atoms in group ulayer
Deleted 0 atoms, new total = 8214
44 atoms in group lb
360 atoms in group bb
92 atoms in group rb
354 atoms in group ub
Changing box ...
  orthogonal box = (0 0 0) to (16.186228 173.68088 70.088424)

CITE-CITE-CITE-CITE-CITE-CITE-CITE-CITE-CITE-CITE-CITE-CITE-CITE

Your simulation uses code contributions which should be cited:
- Type Label Framework: https://doi.org/10.1021/acs.jpcb.3c08419
The log file lists these citations in BibTeX format.

CITE-CITE-CITE-CITE-CITE-CITE-CITE-CITE-CITE-CITE-CITE-CITE-CITE

Switching to 'neigh_modify every 1 delay 0 check yes' setting during minimization
Setting up cg style minimization ...
  Unit style    : metal
  Current step  : 0
WARNING: A per-atom density exceeded rhomax of EAM potential table - a linear extrapolation to the energy was made (src/MANYBODY/pair_eam.cpp:334)
Per MPI rank memory allocation (min/avg/max) = 5.944 | 5.944 | 5.944 Mbytes
   Step           Lx             Lx             Ly             Lz          Atoms         Temp          PotEng           Lx             Ly             Lz           Press          c_KET          c_PET     
         0   16.186228      16.186228      173.68088      70.088424           8214   2             -70274.402      16.186228      173.68088      70.088424     -133816.17      2.1232271     -70274.402    
         2   16.186228      16.186228      173.68088      70.088424           8214   2             -70288.537      16.186228      173.68088      70.088424     -133623.64      2.1232271     -70288.537    
         4   16.186228      16.186228      173.68088      70.088424           8214   2             -70296.248      16.186228      173.68088      70.088424     -133417.18      2.1232271     -70296.248    
         6   16.186228      16.186228      173.68088      70.088424           8214   2             -70300.498      16.186228      173.68088      70.088424     -133290.87      2.1232271     -70300.498    
         8   16.186228      16.186228      173.68088      70.088424           8214   2             -70301.782      16.186228      173.68088      70.088424     -133283.21      2.1232271     -70301.782    
        10   16.186228      16.186228      173.68088      70.088424           8214   2             -70302.631      16.186228      173.68088      70.088424     -133278.22      2.1232271     -70302.631    
        12   16.186228      16.186228      173.68088      70.088424           8214   2             -70302.907      16.186228      173.68088      70.088424     -133284.45      2.1232271     -70302.907    
        14   16.186228      16.186228      173.68088      70.088424           8214   2             -70303.036      16.186228      173.68088      70.088424     -133280.59      2.1232271     -70303.036    
        16   16.186228      16.186228      173.68088      70.088424           8214   2             -70303.11       16.186228      173.68088      70.088424     -133277.8       2.1232271     -70303.11     
        18   16.186228      16.186228      173.68088      70.088424           8214   2             -70303.178      16.186228      173.68088      70.088424     -133279.65      2.1232271     -70303.178    
        20   16.186228      16.186228      173.68088      70.088424           8214   2             -70303.225      16.186228      173.68088      70.088424     -133279.41      2.1232271     -70303.225    
        22   16.186228      16.186228      173.68088      70.088424           8214   2             -70303.26       16.186228      173.68088      70.088424     -133277.58      2.1232271     -70303.26     
        24   16.186228      16.186228      173.68088      70.088424           8214   2             -70303.304      16.186228      173.68088      70.088424     -133278.29      2.1232271     -70303.304    
        26   16.186228      16.186228      173.68088      70.088424           8214   2             -70303.314      16.186228      173.68088      70.088424     -133279.13      2.1232271     -70303.314    
        28   16.186228      16.186228      173.68088      70.088424           8214   2             -70303.324      16.186228      173.68088      70.088424     -133280.24      2.1232271     -70303.324    
        30   16.186228      16.186228      173.68088      70.088424           8214   2             -70303.331      16.186228      173.68088      70.088424     -133279.54      2.1232271     -70303.331    
        32   16.186228      16.186228      173.68088      70.088424           8214   2             -70303.336      16.186228      173.68088      70.088424     -133279.22      2.1232271     -70303.336    
        34   16.186228      16.186228      173.68088      70.088424           8214   2             -70303.342      16.186228      173.68088      70.088424     -133279.83      2.1232271     -70303.342    
        36   16.186228      16.186228      173.68088      70.088424           8214   2             -70303.347      16.186228      173.68088      70.088424     -133279.98      2.1232271     -70303.347    
        38   16.186228      16.186228      173.68088      70.088424           8214   2             -70303.35       16.186228      173.68088      70.088424     -133279.81      2.1232271     -70303.35     
        40   16.186228      16.186228      173.68088      70.088424           8214   2             -70303.354      16.186228      173.68088      70.088424     -133279.52      2.1232271     -70303.354    
Loop time of 0.359773 on 1 procs for 40 steps with 8214 atoms

100.0% CPU use with 1 MPI tasks x 1 OpenMP threads

Minimization stats:
  Stopping criterion = energy tolerance
  Energy initial, next-to-last, final = 
     -70274.4019951764   -70303.352937668  -70303.3536159661
  Force two-norm initial, final = 17.13785 0.066334579
  Force max component initial, final = 3.2210024 0.0044059628
  Final line search alpha, max atom move = 0.25 0.0011014907
  Iterations, force evaluations = 40 102

MPI task timing breakdown:
Section |  min time  |  avg time  |  max time  |%varavg| %total
---------------------------------------------------------------
Pair    | 0.34522    | 0.34522    | 0.34522    |   0.0 | 95.95
Neigh   | 0          | 0          | 0          |   0.0 |  0.00
Comm    | 0.0023591  | 0.0023591  | 0.0023591  |   0.0 |  0.66
Output  | 0.001122   | 0.001122   | 0.001122   |   0.0 |  0.31
Modify  | 0.0019841  | 0.0019841  | 0.0019841  |   0.0 |  0.55
Other   |            | 0.009092   |            |       |  2.53

Nlocal:           8214 ave        8214 max        8214 min
Histogram: 1 0 0 0 0 0 0 0 0 0
Nghost:           6190 ave        6190 max        6190 min
Histogram: 1 0 0 0 0 0 0 0 0 0
Neighs:         225064 ave      225064 max      225064 min
Histogram: 1 0 0 0 0 0 0 0 0 0

Total # of neighbors = 225064
Ave neighs/atom = 27.400049
Neighbor list builds = 0
Dangerous builds = 0
Total wall time: 0:00:00
LAMMPS (27 Jun 2024)
OMP_NUM_THREADS environment is not set. Defaulting to 1 thread. (src/comm.cpp:98)
  using 1 OpenMP thread(s) per MPI task
Reading data file ...
  orthogonal box = (0 0 0) to (16.186228 171.68088 70.088424)
  1 by 1 by 1 MPI processor grid
  reading atoms ...
  8214 atoms
  read_data CPU = 0.013 seconds
System init for write_data ...
Neighbor list info ...
  update: every = 1 steps, delay = 5 steps, check = yes
  max neighbors/atom: 2000, page size: 100000
  master list distance cutoff = 6.2
  ghost atom cutoff = 6.2
  binsize = 3.1, bins = 6 56 23
  1 neighbor lists, perpetual/occasional/extra = 1 0 0
  (1) pair eam/fs, perpetual
      attributes: half, newton on
      pair build: half/bin/atomonly/newton
      stencil: half/bin/3d
      bin: standard
0 atoms in group ulayer
Deleted 0 atoms, new total = 8214
44 atoms in group lb
360 atoms in group bb
92 atoms in group rb
354 atoms in group ub
Changing box ...
  orthogonal box = (0 0 0) to (16.186228 173.68088 70.088424)

CITE-CITE-CITE-CITE-CITE-CITE-CITE-CITE-CITE-CITE-CITE-CITE-CITE

Your simulation uses code contributions which should be cited:
- Type Label Framework: https://doi.org/10.1021/acs.jpcb.3c08419
The log file lists these citations in BibTeX format.

CITE-CITE-CITE-CITE-CITE-CITE-CITE-CITE-CITE-CITE-CITE-CITE-CITE

Switching to 'neigh_modify every 1 delay 0 check yes' setting during minimization
Setting up cg style minimization ...
  Unit style    : metal
  Current step  : 0
WARNING: A per-atom density exceeded rhomax of EAM potential table - a linear extrapolation to the energy was made (src/MANYBODY/pair_eam.cpp:334)
Per MPI rank memory allocation (min/avg/max) = 5.944 | 5.944 | 5.944 Mbytes
   Step           Lx             Lx             Ly             Lz          Atoms         Temp          PotEng           Lx             Ly             Lz           Press          c_KET          c_PET     
         0   16.186228      16.186228      173.68088      70.088424           8214   2             -71011.83       16.186228      173.68088      70.088424     -143961.32      2.1232271     -71011.83     
         2   16.186228      16.186228      173.68088      70.088424           8214   2             -71026.135      16.186228      173.68088      70.088424     -143757.07      2.1232271     -71026.135    
         4   16.186228      16.186228      173.68088      70.088424           8214   2             -71033.909      16.186228      173.68088      70.088424     -143536.43      2.1232271     -71033.909    
         6   16.186228      16.186228      173.68088      70.088424           8214   2             -71038.147      16.186228      173.68088      70.088424     -143395.81      2.1232271     -71038.147    
         8   16.186228      16.186228      173.68088      70.088424           8214   2             -71039.42       16.186228      173.68088      70.088424     -143382.28      2.1232271     -71039.42     
        10   16.186228      16.186228      173.68088      70.088424           8214   2             -71040.27       16.186228      173.68088      70.088424     -143370.43      2.1232271     -71040.27     
        12   16.186228      16.186228      173.68088      70.088424           8214   2             -71040.548      16.186228      173.68088      70.088424     -143377.15      2.1232271     -71040.548    
        14   16.186228      16.186228      173.68088      70.088424           8214   2             -71040.677      16.186228      173.68088      70.088424     -143372.47      2.1232271     -71040.677    
        16   16.186228      16.186228      173.68088      70.088424           8214   2             -71040.742      16.186228      173.68088      70.088424     -143367.67      2.1232271     -71040.742    
        18   16.186228      16.186228      173.68088      70.088424           8214   2             -71040.809      16.186228      173.68088      70.088424     -143370.26      2.1232271     -71040.809    
        20   16.186228      16.186228      173.68088      70.088424           8214   2             -71040.849      16.186228      173.68088      70.088424     -143369.32      2.1232271     -71040.849    
        22   16.186228      16.186228      173.68088      70.088424           8214   2             -71040.887      16.186228      173.68088      70.088424     -143366.48      2.1232271     -71040.887    
        24   16.186228      16.186228      173.68088      70.088424           8214   2             -71040.905      16.186228      173.68088      70.088424     -143367.14      2.1232271     -71040.905    
        26   16.186228      16.186228      173.68088      70.088424           8214   2             -71040.916      16.186228      173.68088      70.088424     -143367.54      2.1232271     -71040.916    
        28   16.186228      16.186228      173.68088      70.088424           8214   2             -71040.947      16.186228      173.68088      70.088424     -143369.56      2.1232271     -71040.947    
        30   16.186228      16.186228      173.68088      70.088424           8214   2             -71040.96       16.186228      173.68088      70.088424     -143367.76      2.1232271     -71040.96     
        32   16.186228      16.186228      173.68088      70.088424           8214   2             -71040.965      16.186228      173.68088      70.088424     -143368.14      2.1232271     -71040.965    
        34   16.186228      16.186228      173.68088      70.088424           8214   2             -71040.972      16.186228      173.68088      70.088424     -143367.28      2.1232271     -71040.972    
        36   16.186228      16.186228      173.68088      70.088424           8214   2             -71040.974      16.186228      173.68088      70.088424     -143367.17      2.1232271     -71040.974    
Loop time of 0.31609 on 1 procs for 36 steps with 8214 atoms

98.5% CPU use with 1 MPI tasks x 1 OpenMP threads

Minimization stats:
  Stopping criterion = energy tolerance
  Energy initial, next-to-last, final = 
     -71011.8295852627  -71040.9731553852  -71040.9737914688
  Force two-norm initial, final = 17.175168 0.073653137
  Force max component initial, final = 3.195775 0.0072993295
  Final line search alpha, max atom move = 0.25 0.0018248324
  Iterations, force evaluations = 36 92

MPI task timing breakdown:
Section |  min time  |  avg time  |  max time  |%varavg| %total
---------------------------------------------------------------
Pair    | 0.30284    | 0.30284    | 0.30284    |   0.0 | 95.81
Neigh   | 0          | 0          | 0          |   0.0 |  0.00
Comm    | 0.002238   | 0.002238   | 0.002238   |   0.0 |  0.71
Output  | 0.0009256  | 0.0009256  | 0.0009256  |   0.0 |  0.29
Modify  | 0.0017888  | 0.0017888  | 0.0017888  |   0.0 |  0.57
Other   |            | 0.008298   |            |       |  2.63

Nlocal:           8214 ave        8214 max        8214 min
Histogram: 1 0 0 0 0 0 0 0 0 0
Nghost:           6190 ave        6190 max        6190 min
Histogram: 1 0 0 0 0 0 0 0 0 0
Neighs:         225064 ave      225064 max      225064 min
Histogram: 1 0 0 0 0 0 0 0 0 0

Total # of neighbors = 225064
Ave neighs/atom = 27.400049
Neighbor list builds = 0
Dangerous builds = 0
Total wall time: 0:00:00
LAMMPS (27 Jun 2024)
OMP_NUM_THREADS environment is not set. Defaulting to 1 thread. (src/comm.cpp:98)
  using 1 OpenMP thread(s) per MPI task
Reading data file ...
  orthogonal box = (0 0 0) to (16.186228 171.68088 70.088424)
  1 by 1 by 1 MPI processor grid
  reading atoms ...
  8214 atoms
  read_data CPU = 0.013 seconds
System init for write_data ...
Neighbor list info ...
  update: every = 1 steps, delay = 5 steps, check = yes
  max neighbors/atom: 2000, page size: 100000
  master list distance cutoff = 6.2
  ghost atom cutoff = 6.2
  binsize = 3.1, bins = 6 56 23
  1 neighbor lists, perpetual/occasional/extra = 1 0 0
  (1) pair eam/fs, perpetual
      attributes: half, newton on
      pair build: half/bin/atomonly/newton
      stencil: half/bin/3d
      bin: standard
0 atoms in group ulayer
Deleted 0 atoms, new total = 8214
44 atoms in group lb
360 atoms in group bb
92 atoms in group rb
354 atoms in group ub
Changing box ...
  orthogonal box = (0 0 0) to (16.186228 173.68088 70.088424)

CITE-CITE-CITE-CITE-CITE-CITE-CITE-CITE-CITE-CITE-CITE-CITE-CITE

Your simulation uses code contributions which should be cited:
- Type Label Framework: https://doi.org/10.1021/acs.jpcb.3c08419
The log file lists these citations in BibTeX format.

CITE-CITE-CITE-CITE-CITE-CITE-CITE-CITE-CITE-CITE-CITE-CITE-CITE

Switching to 'neigh_modify every 1 delay 0 check yes' setting during minimization
Setting up cg style minimization ...
  Unit style    : metal
  Current step  : 0
WARNING: A per-atom density exceeded rhomax of EAM potential table - a linear extrapolation to the energy was made (src/MANYBODY/pair_eam.cpp:334)
Per MPI rank memory allocation (min/avg/max) = 5.944 | 5.944 | 5.944 Mbytes
   Step           Lx             Lx             Ly             Lz          Atoms         Temp          PotEng           Lx             Ly             Lz           Press          c_KET          c_PET     
         0   16.186228      16.186228      173.68088      70.088424           8214   2             -71710.69       16.186228      173.68088      70.088424     -150135.68      2.1232271     -71710.69     
         2   16.186228      16.186228      173.68088      70.088424           8214   2             -71725.124      16.186228      173.68088      70.088424     -149923.96      2.1232271     -71725.124    
         4   16.186228      16.186228      173.68088      70.088424           8214   2             -71732.951      16.186228      173.68088      70.088424     -149694.37      2.1232271     -71732.951    
         6   16.186228      16.186228      173.68088      70.088424           8214   2             -71737.194      16.186228      173.68088      70.088424     -149544.26      2.1232271     -71737.194    
         8   16.186228      16.186228      173.68088      70.088424           8214   2             -71738.46       16.186228      173.68088      70.088424     -149526.98      2.1232271     -71738.46     
        10   16.186228      16.186228      173.68088      70.088424           8214   2             -71739.31       16.186228      173.68088      70.088424     -149510.97      2.1232271     -71739.31     
        12   16.186228      16.186228      173.68088      70.088424           8214   2             -71739.608      16.186228      173.68088      70.088424     -149517.35      2.1232271     -71739.608    
        14   16.186228      16.186228      173.68088      70.088424           8214   2             -71739.726      16.186228      173.68088      70.088424     -149512.46      2.1232271     -71739.726    
        16   16.186228      16.186228      173.68088      70.088424           8214   2             -71739.786      16.186228      173.68088      70.088424     -149507.01      2.1232271     -71739.786    
        18   16.186228      16.186228      173.68088      70.088424           8214   2             -71739.849      16.186228      173.68088      70.088424     -149509.78      2.1232271     -71739.849    
        20   16.186228      16.186228      173.68088      70.088424           8214   2             -71739.889      16.186228      173.68088      70.088424     -149508.48      2.1232271     -71739.889    
        22   16.186228      16.186228      173.68088      70.088424           8214   2             -71739.923      16.186228      173.68088      70.088424     -149505.33      2.1232271     -71739.923    
        24   16.186228      16.186228      173.68088      70.088424           8214   2             -71739.947      16.186228      173.68088      70.088424     -149505.75      2.1232271     -71739.947    
        26   16.186228      16.186228      173.68088      70.088424           8214   2             -71739.97       16.186228      173.68088      70.088424     -149506.63      2.1232271     -71739.97     
        28   16.186228      16.186228      173.68088      70.088424           8214   2             -71739.994      16.186228      173.68088      70.088424     -149505.45      2.1232271     -71739.994    
        30   16.186228      16.186228      173.68088      70.088424           8214   2             -71739.997      16.186228      173.68088      70.088424     -149505         2.1232271     -71739.997    
        31   16.186228      16.186228      173.68088      70.088424           8214   2             -71739.998      16.186228      173.68088      70.088424     -149505.06      2.1232271     -71739.998    
Loop time of 0.267547 on 1 procs for 31 steps with 8214 atoms

100.0% CPU use with 1 MPI tasks x 1 OpenMP threads

Minimization stats:
  Stopping criterion = energy tolerance
  Energy initial, next-to-last, final = 
      -71710.689889051  -71739.9968965813  -71739.9975909304
  Force two-norm initial, final = 17.309496 0.070327923
  Force max component initial, final = 3.2165379 0.0047676817
  Final line search alpha, max atom move = 0.25 0.0011919204
  Iterations, force evaluations = 31 76

MPI task timing breakdown:
Section |  min time  |  avg time  |  max time  |%varavg| %total
---------------------------------------------------------------
Pair    | 0.25639    | 0.25639    | 0.25639    |   0.0 | 95.83
Neigh   | 0          | 0          | 0          |   0.0 |  0.00
Comm    | 0.0017952  | 0.0017952  | 0.0017952  |   0.0 |  0.67
Output  | 0.00098269 | 0.00098269 | 0.00098269 |   0.0 |  0.37
Modify  | 0.0014829  | 0.0014829  | 0.0014829  |   0.0 |  0.55
Other   |            | 0.006896   |            |       |  2.58

Nlocal:           8214 ave        8214 max        8214 min
Histogram: 1 0 0 0 0 0 0 0 0 0
Nghost:           6190 ave        6190 max        6190 min
Histogram: 1 0 0 0 0 0 0 0 0 0
Neighs:         225064 ave      225064 max      225064 min
Histogram: 1 0 0 0 0 0 0 0 0 0

Total # of neighbors = 225064
Ave neighs/atom = 27.400049
Neighbor list builds = 0
Dangerous builds = 0
Total wall time: 0:00:00
LAMMPS (27 Jun 2024)
OMP_NUM_THREADS environment is not set. Defaulting to 1 thread. (src/comm.cpp:98)
  using 1 OpenMP thread(s) per MPI task
Reading data file ...
  orthogonal box = (0 0 0) to (16.186228 171.68088 70.088424)
  1 by 1 by 1 MPI processor grid
  reading atoms ...
  8214 atoms
  read_data CPU = 0.014 seconds
System init for write_data ...
Neighbor list info ...
  update: every = 1 steps, delay = 5 steps, check = yes
  max neighbors/atom: 2000, page size: 100000
  master list distance cutoff = 6.2
  ghost atom cutoff = 6.2
  binsize = 3.1, bins = 6 56 23
  1 neighbor lists, perpetual/occasional/extra = 1 0 0
  (1) pair eam/fs, perpetual
      attributes: half, newton on
      pair build: half/bin/atomonly/newton
      stencil: half/bin/3d
      bin: standard
0 atoms in group ulayer
Deleted 0 atoms, new total = 8214
44 atoms in group lb
360 atoms in group bb
92 atoms in group rb
354 atoms in group ub
Changing box ...
  orthogonal box = (0 0 0) to (16.186228 173.68088 70.088424)

CITE-CITE-CITE-CITE-CITE-CITE-CITE-CITE-CITE-CITE-CITE-CITE-CITE

Your simulation uses code contributions which should be cited:
- Type Label Framework: https://doi.org/10.1021/acs.jpcb.3c08419
The log file lists these citations in BibTeX format.

CITE-CITE-CITE-CITE-CITE-CITE-CITE-CITE-CITE-CITE-CITE-CITE-CITE

Switching to 'neigh_modify every 1 delay 0 check yes' setting during minimization
Setting up cg style minimization ...
  Unit style    : metal
  Current step  : 0
WARNING: A per-atom density exceeded rhomax of EAM potential table - a linear extrapolation to the energy was made (src/MANYBODY/pair_eam.cpp:334)
Per MPI rank memory allocation (min/avg/max) = 5.944 | 5.944 | 5.944 Mbytes
   Step           Lx             Lx             Ly             Lz          Atoms         Temp          PotEng           Lx             Ly             Lz           Press          c_KET          c_PET     
         0   16.186228      16.186228      173.68088      70.088424           8214   2             -71260.939      16.186228      173.68088      70.088424     -146672.58      2.1232271     -71260.939    
         2   16.186228      16.186228      173.68088      70.088424           8214   2             -71275.297      16.186228      173.68088      70.088424     -146465.29      2.1232271     -71275.297    
         4   16.186228      16.186228      173.68088      70.088424           8214   2             -71283.098      16.186228      173.68088      70.088424     -146240.81      2.1232271     -71283.098    
         6   16.186228      16.186228      173.68088      70.088424           8214   2             -71287.34       16.186228      173.68088      70.088424     -146096.15      2.1232271     -71287.34     
         8   16.186228      16.186228      173.68088      70.088424           8214   2             -71288.612      16.186228      173.68088      70.088424     -146081.07      2.1232271     -71288.612    
        10   16.186228      16.186228      173.68088      70.088424           8214   2             -71289.462      16.186228      173.68088      70.088424     -146067.34      2.1232271     -71289.462    
        12   16.186228      16.186228      173.68088      70.088424           8214   2             -71289.74       16.186228      173.68088      70.088424     -146074.1       2.1232271     -71289.74     
        14   16.186228      16.186228      173.68088      70.088424           8214   2             -71289.871      16.186228      173.68088      70.088424     -146069.25      2.1232271     -71289.871    
        16   16.186228      16.186228      173.68088      70.088424           8214   2             -71289.932      16.186228      173.68088      70.088424     -146063.91      2.1232271     -71289.932    
        18   16.186228      16.186228      173.68088      70.088424           8214   2             -71290.002      16.186228      173.68088      70.088424     -146067.14      2.1232271     -71290.002    
        20   16.186228      16.186228      173.68088      70.088424           8214   2             -71290.045      16.186228      173.68088      70.088424     -146065.13      2.1232271     -71290.045    
        22   16.186228      16.186228      173.68088      70.088424           8214   2             -71290.086      16.186228      173.68088      70.088424     -146062.5       2.1232271     -71290.086    
        24   16.186228      16.186228      173.68088      70.088424           8214   2             -71290.108      16.186228      173.68088      70.088424     -146062.62      2.1232271     -71290.108    
        26   16.186228      16.186228      173.68088      70.088424           8214   2             -71290.133      16.186228      173.68088      70.088424     -146063.03      2.1232271     -71290.133    
        28   16.186228      16.186228      173.68088      70.088424           8214   2             -71290.148      16.186228      173.68088      70.088424     -146062.53      2.1232271     -71290.148    
        30   16.186228      16.186228      173.68088      70.088424           8214   2             -71290.154      16.186228      173.68088      70.088424     -146062.8       2.1232271     -71290.154    
        32   16.186228      16.186228      173.68088      70.088424           8214   2             -71290.156      16.186228      173.68088      70.088424     -146062.82      2.1232271     -71290.156    
Loop time of 0.314397 on 1 procs for 32 steps with 8214 atoms

95.6% CPU use with 1 MPI tasks x 1 OpenMP threads

Minimization stats:
  Stopping criterion = energy tolerance
  Energy initial, next-to-last, final = 
     -71260.9388331571  -71290.1556984081  -71290.1564063186
  Force two-norm initial, final = 17.221189 0.067865961
  Force max component initial, final = 3.2020648 0.008317579
[...]
        14   16.186228      16.186228      173.68088      70.088424           8214   2             -71289.097      16.186228      173.68088      70.088424     -146063.17      2.1232271     -71289.097    
        16   16.186228      16.186228      173.68088      70.088424           8214   2             -71289.158      16.186228      173.68088      70.088424     -146057.83      2.1232271     -71289.158    
        18   16.186228      16.186228      173.68088      70.088424           8214   2             -71289.229      16.186228      173.68088      70.088424     -146061.06      2.1232271     -71289.229    
        20   16.186228      16.186228      173.68088      70.088424           8214   2             -71289.272      16.186228      173.68088      70.088424     -146059.05      2.1232271     -71289.272    
        22   16.186228      16.186228      173.68088      70.088424           8214   2             -71289.313      16.186228      173.68088      70.088424     -146056.43      2.1232271     -71289.313    
        24   16.186228      16.186228      173.68088      70.088424           8214   2             -71289.334      16.186228      173.68088      70.088424     -146056.55      2.1232271     -71289.334    
        26   16.186228      16.186228      173.68088      70.088424           8214   2             -71289.36       16.186228      173.68088      70.088424     -146056.95      2.1232271     -71289.36     
        28   16.186228      16.186228      173.68088      70.088424           8214   2             -71289.375      16.186228      173.68088      70.088424     -146056.45      2.1232271     -71289.375    
        30   16.186228      16.186228      173.68088      70.088424           8214   2             -71289.381      16.186228      173.68088      70.088424     -146056.72      2.1232271     -71289.381    
        32   16.186228      16.186228      173.68088      70.088424           8214   2             -71289.383      16.186228      173.68088      70.088424     -146056.74      2.1232271     -71289.383    
Loop time of 0.305916 on 1 procs for 32 steps with 8214 atoms

98.5% CPU use with 1 MPI tasks x 1 OpenMP threads

Minimization stats:
  Stopping criterion = energy tolerance
  Energy initial, next-to-last, final = 
      -71260.165567335  -71289.3822785333   -71289.382987428
  Force two-norm initial, final = 17.221037 0.067880844
  Force max component initial, final = 3.2020397 0.0083108375
  Final line search alpha, max atom move = 0.125 0.0010388547
  Iterations, force evaluations = 32 81

MPI task timing breakdown:
Section |  min time  |  avg time  |  max time  |%varavg| %total
---------------------------------------------------------------
Pair    | 0.29392    | 0.29392    | 0.29392    |   0.0 | 96.08
Neigh   | 0          | 0          | 0          |   0.0 |  0.00
Comm    | 0.001984   | 0.001984   | 0.001984   |   0.0 |  0.65
Output  | 0.00086536 | 0.00086536 | 0.00086536 |   0.0 |  0.28
Modify  | 0.0016737  | 0.0016737  | 0.0016737  |   0.0 |  0.55
Other   |            | 0.007477   |            |       |  2.44

Nlocal:           8214 ave        8214 max        8214 min
Histogram: 1 0 0 0 0 0 0 0 0 0
Nghost:           6190 ave        6190 max        6190 min
Histogram: 1 0 0 0 0 0 0 0 0 0
Neighs:         225064 ave      225064 max      225064 min
Histogram: 1 0 0 0 0 0 0 0 0 0

Total # of neighbors = 225064
Ave neighs/atom = 27.400049
Neighbor list builds = 0
Dangerous builds = 0
Total wall time: 0:00:00
LAMMPS (27 Jun 2024)
OMP_NUM_THREADS environment is not set. Defaulting to 1 thread. (src/comm.cpp:98)
  using 1 OpenMP thread(s) per MPI task
Reading data file ...
  orthogonal box = (0 0 0) to (16.186228 171.68088 70.088424)
  1 by 1 by 1 MPI processor grid
  reading atoms ...
  8214 atoms
  read_data CPU = 0.013 seconds
System init for write_data ...
Neighbor list info ...
  update: every = 1 steps, delay = 5 steps, check = yes
  max neighbors/atom: 2000, page size: 100000
  master list distance cutoff = 6.2
  ghost atom cutoff = 6.2
  binsize = 3.1, bins = 6 56 23
  1 neighbor lists, perpetual/occasional/extra = 1 0 0
  (1) pair eam/fs, perpetual
      attributes: half, newton on
      pair build: half/bin/atomonly/newton
      stencil: half/bin/3d
      bin: standard
0 atoms in group ulayer
Deleted 0 atoms, new total = 8214
44 atoms in group lb
360 atoms in group bb
92 atoms in group rb
354 atoms in group ub
Changing box ...
  orthogonal box = (0 0 0) to (16.186228 173.68088 70.088424)

CITE-CITE-CITE-CITE-CITE-CITE-CITE-CITE-CITE-CITE-CITE-CITE-CITE

Your simulation uses code contributions which should be cited:
- Type Label Framework: https://doi.org/10.1021/acs.jpcb.3c08419
The log file lists these citations in BibTeX format.

CITE-CITE-CITE-CITE-CITE-CITE-CITE-CITE-CITE-CITE-CITE-CITE-CITE

Switching to 'neigh_modify every 1 delay 0 check yes' setting during minimization
Setting up cg style minimization ...
  Unit style    : metal
  Current step  : 0
WARNING: A per-atom density exceeded rhomax of EAM potential table - a linear extrapolation to the energy was made (src/MANYBODY/pair_eam.cpp:334)
Per MPI rank memory allocation (min/avg/max) = 5.944 | 5.944 | 5.944 Mbytes
   Step           Lx             Lx             Ly             Lz          Atoms         Temp          PotEng           Lx             Ly             Lz           Press          c_KET          c_PET     
         0   16.186228      16.186228      173.68088      70.088424           8214   2             -71260.588      16.186228      173.68088      70.088424     -146669.81      2.1232271     -71260.588    
         2   16.186228      16.186228      173.68088      70.088424           8214   2             -71274.946      16.186228      173.68088      70.088424     -146462.52      2.1232271     -71274.946    
         4   16.186228      16.186228      173.68088      70.088424           8214   2             -71282.747      16.186228      173.68088      70.088424     -146238.04      2.1232271     -71282.747    
         6   16.186228      16.186228      173.68088      70.088424           8214   2             -71286.99       16.186228      173.68088      70.088424     -146093.39      2.1232271     -71286.99     
         8   16.186228      16.186228      173.68088      70.088424           8214   2             -71288.262      16.186228      173.68088      70.088424     -146078.31      2.1232271     -71288.262    
        10   16.186228      16.186228      173.68088      70.088424           8214   2             -71289.111      16.186228      173.68088      70.088424     -146064.59      2.1232271     -71289.111    
        12   16.186228      16.186228      173.68088      70.088424           8214   2             -71289.389      16.186228      173.68088      70.088424     -146071.34      2.1232271     -71289.389    
        14   16.186228      16.186228      173.68088      70.088424           8214   2             -71289.52       16.186228      173.68088      70.088424     -146066.49      2.1232271     -71289.52     
        16   16.186228      16.186228      173.68088      70.088424           8214   2             -71289.581      16.186228      173.68088      70.088424     -146061.15      2.1232271     -71289.581    
        18   16.186228      16.186228      173.68088      70.088424           8214   2             -71289.651      16.186228      173.68088      70.088424     -146064.38      2.1232271     -71289.651    
        20   16.186228      16.186228      173.68088      70.088424           8214   2             -71289.694      16.186228      173.68088      70.088424     -146062.38      2.1232271     -71289.694    
        22   16.186228      16.186228      173.68088      70.088424           8214   2             -71289.735      16.186228      173.68088      70.088424     -146059.75      2.1232271     -71289.735    
        24   16.186228      16.186228      173.68088      70.088424           8214   2             -71289.757      16.186228      173.68088      70.088424     -146059.87      2.1232271     -71289.757    
        26   16.186228      16.186228      173.68088      70.088424           8214   2             -71289.782      16.186228      173.68088      70.088424     -146060.27      2.1232271     -71289.782    
        28   16.186228      16.186228      173.68088      70.088424           8214   2             -71289.797      16.186228      173.68088      70.088424     -146059.78      2.1232271     -71289.797    
        30   16.186228      16.186228      173.68088      70.088424           8214   2             -71289.804      16.186228      173.68088      70.088424     -146060.04      2.1232271     -71289.804    
        32   16.186228      16.186228      173.68088      70.088424           8214   2             -71289.806      16.186228      173.68088      70.088424     -146060.06      2.1232271     -71289.806    
Loop time of 0.282197 on 1 procs for 32 steps with 8214 atoms

100.0% CPU use with 1 MPI tasks x 1 OpenMP threads

Minimization stats:
  Stopping criterion = energy tolerance
  Energy initial, next-to-last, final = 
     -71260.5880435588  -71289.8048389509  -71289.8055473093
  Force two-norm initial, final = 17.22112 0.06787272
  Force max component initial, final = 3.2020534 0.0083145055
  Final line search alpha, max atom move = 0.125 0.0010393132
  Iterations, force evaluations = 32 81

MPI task timing breakdown:
Section |  min time  |  avg time  |  max time  |%varavg| %total
---------------------------------------------------------------
Pair    | 0.2707     | 0.2707     | 0.2707     |   0.0 | 95.93
Neigh   | 0          | 0          | 0          |   0.0 |  0.00
Comm    | 0.0018528  | 0.0018528  | 0.0018528  |   0.0 |  0.66
Output  | 0.00084219 | 0.00084219 | 0.00084219 |   0.0 |  0.30
Modify  | 0.0015525  | 0.0015525  | 0.0015525  |   0.0 |  0.55
Other   |            | 0.007246   |            |       |  2.57

Nlocal:           8214 ave        8214 max        8214 min
Histogram: 1 0 0 0 0 0 0 0 0 0
Nghost:           6190 ave        6190 max        6190 min
Histogram: 1 0 0 0 0 0 0 0 0 0
Neighs:         225064 ave      225064 max      225064 min
Histogram: 1 0 0 0 0 0 0 0 0 0

Total # of neighbors = 225064
Ave neighs/atom = 27.400049
Neighbor list builds = 0
Dangerous builds = 0
Total wall time: 0:00:00
LAMMPS (27 Jun 2024)
OMP_NUM_THREADS environment is not set. Defaulting to 1 thread. (src/comm.cpp:98)
  using 1 OpenMP thread(s) per MPI task
Reading data file ...
  orthogonal box = (0 0 0) to (16.186228 171.68088 70.088424)
  1 by 1 by 1 MPI processor grid
  reading atoms ...
  8214 atoms
  read_data CPU = 0.013 seconds
System init for write_data ...
Neighbor list info ...
  update: every = 1 steps, delay = 5 steps, check = yes
  max neighbors/atom: 2000, page size: 100000
  master list distance cutoff = 6.2
  ghost atom cutoff = 6.2
  binsize = 3.1, bins = 6 56 23
  1 neighbor lists, perpetual/occasional/extra = 1 0 0
  (1) pair eam/fs, perpetual
      attributes: half, newton on
      pair build: half/bin/atomonly/newton
      stencil: half/bin/3d
      bin: standard
0 atoms in group ulayer
Deleted 0 atoms, new total = 8214
44 atoms in group lb
360 atoms in group bb
92 atoms in group rb
354 atoms in group ub
Changing box ...
  orthogonal box = (0 0 0) to (16.186228 173.68088 70.088424)

CITE-CITE-CITE-CITE-CITE-CITE-CITE-CITE-CITE-CITE-CITE-CITE-CITE

Your simulation uses code contributions which should be cited:
- Type Label Framework: https://doi.org/10.1021/acs.jpcb.3c08419
The log file lists these citations in BibTeX format.

CITE-CITE-CITE-CITE-CITE-CITE-CITE-CITE-CITE-CITE-CITE-CITE-CITE

Switching to 'neigh_modify every 1 delay 0 check yes' setting during minimization
Setting up cg style minimization ...
  Unit style    : metal
  Current step  : 0
WARNING: A per-atom density exceeded rhomax of EAM potential table - a linear extrapolation to the energy was made (src/MANYBODY/pair_eam.cpp:334)
Per MPI rank memory allocation (min/avg/max) = 5.944 | 5.944 | 5.944 Mbytes
   Step           Lx             Lx             Ly             Lz          Atoms         Temp          PotEng           Lx             Ly             Lz           Press          c_KET          c_PET     
         0   16.186228      16.186228      173.68088      70.088424           8214   2             -71260.811      16.186228      173.68088      70.088424     -146671.57      2.1232271     -71260.811    
         2   16.186228      16.186228      173.68088      70.088424           8214   2             -71275.169      16.186228      173.68088      70.088424     -146464.28      2.1232271     -71275.169    
         4   16.186228      16.186228      173.68088      70.088424           8214   2             -71282.97       16.186228      173.68088      70.088424     -146239.8       2.1232271     -71282.97     
         6   16.186228      16.186228      173.68088      70.088424           8214   2             -71287.212      16.186228      173.68088      70.088424     -146095.15      2.1232271     -71287.212    
         8   16.186228      16.186228      173.68088      70.088424           8214   2             -71288.484      16.186228      173.68088      70.088424     -146080.06      2.1232271     -71288.484    
        10   16.186228      16.186228      173.68088      70.088424           8214   2             -71289.334      16.186228      173.68088      70.088424     -146066.34      2.1232271     -71289.334    
        12   16.186228      16.186228      173.68088      70.088424           8214   2             -71289.612      16.186228      173.68088      70.088424     -146073.09      2.1232271     -71289.612    
        14   16.186228      16.186228      173.68088      70.088424           8214   2             -71289.743      16.186228      173.68088      70.088424     -146068.25      2.1232271     -71289.743    
        16   16.186228      16.186228      173.68088      70.088424           8214   2             -71289.804      16.186228      173.68088      70.088424     -146062.9       2.1232271     -71289.804    
        18   16.186228      16.186228      173.68088      70.088424           8214   2             -71289.874      16.186228      173.68088      70.088424     -146066.14      2.1232271     -71289.874    
        20   16.186228      16.186228      173.68088      70.088424           8214   2             -71289.917      16.186228      173.68088      70.088424     -146064.13      2.1232271     -71289.917    
        22   16.186228      16.186228      173.68088      70.088424           8214   2             -71289.958      16.186228      173.68088      70.088424     -146061.5       2.1232271     -71289.958    
        24   16.186228      16.186228      173.68088      70.088424           8214   2             -71289.98       16.186228      173.68088      70.088424     -146061.62      2.1232271     -71289.98     
        26   16.186228      16.186228      173.68088      70.088424           8214   2             -71290.005      16.186228      173.68088      70.088424     -146062.02      2.1232271     -71290.005    
        28   16.186228      16.186228      173.68088      70.088424           8214   2             -71290.02       16.186228      173.68088      70.088424     -146061.53      2.1232271     -71290.02     
        30   16.186228      16.186228      173.68088      70.088424           8214   2             -71290.026      16.186228      173.68088      70.088424     -146061.79      2.1232271     -71290.026    
        32   16.186228      16.186228      173.68088      70.088424           8214   2             -71290.028      16.186228      173.68088      70.088424     -146061.81      2.1232271     -71290.028    
Loop time of 0.287022 on 1 procs for 32 steps with 8214 atoms

100.0% CPU use with 1 MPI tasks x 1 OpenMP threads

Minimization stats:
  Stopping criterion = energy tolerance
  Energy initial, next-to-last, final = 
     -71260.8108922861  -71290.0277320628  -71290.0284401347
  Force two-norm initial, final = 17.221164 0.067868428
  Force max component initial, final = 3.2020606 0.0083164551
  Final line search alpha, max atom move = 0.125 0.0010395569
  Iterations, force evaluations = 32 81

MPI task timing breakdown:
Section |  min time  |  avg time  |  max time  |%varavg| %total
---------------------------------------------------------------
Pair    | 0.27518    | 0.27518    | 0.27518    |   0.0 | 95.88
Neigh   | 0          | 0          | 0          |   0.0 |  0.00
Comm    | 0.0019814  | 0.0019814  | 0.0019814  |   0.0 |  0.69
Output  | 0.00089351 | 0.00089351 | 0.00089351 |   0.0 |  0.31
Modify  | 0.0015996  | 0.0015996  | 0.0015996  |   0.0 |  0.56
Other   |            | 0.007365   |            |       |  2.57

Nlocal:           8214 ave        8214 max        8214 min
Histogram: 1 0 0 0 0 0 0 0 0 0
Nghost:           6190 ave        6190 max        6190 min
Histogram: 1 0 0 0 0 0 0 0 0 0
Neighs:         225064 ave      225064 max      225064 min
Histogram: 1 0 0 0 0 0 0 0 0 0

Total # of neighbors = 225064
Ave neighs/atom = 27.400049
Neighbor list builds = 0
Dangerous builds = 0
Total wall time: 0:00:00
1



            * * * * * * * * * * * * * * * * * * * * * * * * * * * 
            *                                                   *
            *                    C O N M I N                    *
            *                                                   *
            *                FORTRAN PROGRAM FOR                *
            *                                                   *
            *         CONSTRAINED FUNCTION MINIMIZATION         *
            *                                                   *
            * * * * * * * * * * * * * * * * * * * * * * * * * * * 




     CONSTRAINED FUNCTION MINIMIZATION

     CONTROL PARAMETERS

     IPRINT  NDV    ITMAX    NCON    NSIDE  ICNDIR   NSCAL   NFDG
       2       3     100       0       1       4       0       1

     LINOBJ  ITRM     N1      N2      N3      N4      N5
       0       3       5       6       4       4       8

         CT              CTMIN           CTL             CTLMIN
     -0.10000E+00     0.10000E-02    -0.10000E-01     0.10000E-02

         THETA           PHI             DELFUN          DABFUN
      0.10000E+01     0.50000E+01     0.10000E-07     0.10000E-07

         FDCH            FDCHM           ALPHAX          ABOBJ1
      0.10000E-04     0.10000E-04     0.10000E+00     0.10000E+00

     LOWER BOUNDS ON DECISION VARIABLES (VLB)
       1)   -0.20000E+01 -0.20000E+01 -0.20000E+01

     UPPER BOUNDS ON DECISION VARIABLES (VUB)
       1)    0.20000E+01  0.20000E+01  0.20000E+01


     INITIAL FUNCTION INFORMATION

     OBJ =   0.389567E-01

     DECISION VARIABLES (X-VECTOR)
       1)    0.10000E+01  0.10000E-01 -0.10000E+00
 




     ITER =    1     OBJ =   0.37020E-01

     DECISION VARIABLES (X-VECTOR)
       1)    0.99998E+00  0.10597E-01 -0.10002E+00




     ITER =    2     OBJ =   0.36990E-01

     DECISION VARIABLES (X-VECTOR)
       1)    0.99990E+00  0.98015E-02 -0.10007E+00




     ITER =    3     OBJ =   0.36990E-01     NO CHANGE IN OBJ

     DECISION VARIABLES (X-VECTOR)
       1)    0.99990E+00  0.98015E-02 -0.10007E+00




     ITER =    4     OBJ =   0.36990E-01     NO CHANGE IN OBJ

     DECISION VARIABLES (X-VECTOR)
       1)    0.99990E+00  0.98015E-02 -0.10007E+00




     ITER =    5     OBJ =   0.36990E-01     NO CHANGE IN OBJ

     DECISION VARIABLES (X-VECTOR)
       1)    0.99990E+00  0.98015E-02 -0.10007E+00
1



    FINAL OPTIMIZATION INFORMATION

     OBJ =   0.369902E-01

     DECISION VARIABLES (X-VECTOR)
       1)    0.99990E+00  0.98015E-02 -0.10007E+00

     THERE ARE    0 ACTIVE SIDE CONSTRAINTS

     TERMINATION CRITERION
          ABS(1-OBJ(I-1)/OBJ(I)) LESS THAN DELFUN FOR  3 ITERATIONS
          ABS(OBJ(I)-OBJ(I-1))   LESS THAN DABFUN FOR  3 ITERATIONS

     NUMBER OF ITERATIONS =    5

     OBJECTIVE FUNCTION WAS EVALUATED           16  TIMES

     GRADIENT OF OBJECTIVE WAS CALCULATED        5  TIMES
