LAMMPS (27 Jun 2024)
OMP_NUM_THREADS environment is not set. Defaulting to 1 thread. (src/comm.cpp:98)
  using 1 OpenMP thread(s) per MPI task
Reading data file ...
  orthogonal box = (0 0 0) to (16.186228 171.68088 70.088424)
  1 by 1 by 1 MPI processor grid
  reading atoms ...
  8214 atoms
  read_data CPU = 0.022 seconds
System init for write_data ...
Neighbor list info ...
  update: every = 1 steps, delay = 5 steps, check = yes
  max neighbors/atom: 2000, page size: 100000
  master list distance cutoff = 6.2
  ghost atom cutoff = 6.2
  binsize = 3.1, bins = 6 56 23
  1 neighbor lists, perpetual/occasional/extra = 1 0 0
  (1) pair eam/fs, perpetual
      attributes: half, newton on
      pair build: half/bin/atomonly/newton
      stencil: half/bin/3d
      bin: standard
0 atoms in group ulayer
Deleted 0 atoms, new total = 8214
44 atoms in group lb
360 atoms in group bb
92 atoms in group rb
354 atoms in group ub
Changing box ...
  orthogonal box = (0 0 0) to (16.186228 173.68088 70.088424)

CITE-CITE-CITE-CITE-CITE-CITE-CITE-CITE-CITE-CITE-CITE-CITE-CITE

Your simulation uses code contributions which should be cited:
- Type Label Framework: https://doi.org/10.1021/acs.jpcb.3c08419
The log file lists these citations in BibTeX format.

CITE-CITE-CITE-CITE-CITE-CITE-CITE-CITE-CITE-CITE-CITE-CITE-CITE

Switching to 'neigh_modify every 1 delay 0 check yes' setting during minimization
Setting up cg style minimization ...
  Unit style    : metal
  Current step  : 0
WARNING: A per-atom density exceeded rhomax of EAM potential table - a linear extrapolation to the energy was made (src/MANYBODY/pair_eam.cpp:334)
Per MPI rank memory allocation (min/avg/max) = 5.944 | 5.944 | 5.944 Mbytes
   Step           Lx             Lx             Ly             Lz          Atoms         Temp          PotEng           Lx             Ly             Lz           Press          c_KET          c_PET     
         0   16.186228      16.186228      173.68088      70.088424           8214   2             -55929.495      16.186228      173.68088      70.088424      62658.626      2.1232271     -55929.495    
         2   16.186228      16.186228      173.68088      70.088424           8214   2             -55944.456      16.186228      173.68088      70.088424      62632.096      2.1232271     -55944.456    
         4   16.186228      16.186228      173.68088      70.088424           8214   2             -55954.039      16.186228      173.68088      70.088424      62546.373      2.1232271     -55954.039    
         6   16.186228      16.186228      173.68088      70.088424           8214   2             -55961.361      16.186228      173.68088      70.088424      62273.965      2.1232271     -55961.361    
         8   16.186228      16.186228      173.68088      70.088424           8214   2             -55964.007      16.186228      173.68088      70.088424      62099.736      2.1232271     -55964.007    
        10   16.186228      16.186228      173.68088      70.088424           8214   2             -55966.061      16.186228      173.68088      70.088424      61841.498      2.1232271     -55966.061    
        12   16.186228      16.186228      173.68088      70.088424           8214   2             -55966.779      16.186228      173.68088      70.088424      61774.377      2.1232271     -55966.779    
        14   16.186228      16.186228      173.68088      70.088424           8214   2             -55967.104      16.186228      173.68088      70.088424      61769.205      2.1232271     -55967.104    
        16   16.186228      16.186228      173.68088      70.088424           8214   2             -55967.302      16.186228      173.68088      70.088424      61772.656      2.1232271     -55967.302    
        18   16.186228      16.186228      173.68088      70.088424           8214   2             -55967.514      16.186228      173.68088      70.088424      61772.577      2.1232271     -55967.514    
        20   16.186228      16.186228      173.68088      70.088424           8214   2             -55967.705      16.186228      173.68088      70.088424      61748.931      2.1232271     -55967.705    
        22   16.186228      16.186228      173.68088      70.088424           8214   2             -55967.878      16.186228      173.68088      70.088424      61717.899      2.1232271     -55967.878    
        24   16.186228      16.186228      173.68088      70.088424           8214   2             -55967.94       16.186228      173.68088      70.088424      61709.541      2.1232271     -55967.94     
        26   16.186228      16.186228      173.68088      70.088424           8214   2             -55968.012      16.186228      173.68088      70.088424      61678.352      2.1232271     -55968.012    
        28   16.186228      16.186228      173.68088      70.088424           8214   2             -55968.076      16.186228      173.68088      70.088424      61664.18       2.1232271     -55968.076    
        30   16.186228      16.186228      173.68088      70.088424           8214   2             -55968.101      16.186228      173.68088      70.088424      61673.243      2.1232271     -55968.101    
        32   16.186228      16.186228      173.68088      70.088424           8214   2             -55968.133      16.186228      173.68088      70.088424      61684.92       2.1232271     -55968.133    
        34   16.186228      16.186228      173.68088      70.088424           8214   2             -55968.157      16.186228      173.68088      70.088424      61675.448      2.1232271     -55968.157    
        36   16.186228      16.186228      173.68088      70.088424           8214   2             -55968.184      16.186228      173.68088      70.088424      61661.431      2.1232271     -55968.184    
        38   16.186228      16.186228      173.68088      70.088424           8214   2             -55968.214      16.186228      173.68088      70.088424      61665.51       2.1232271     -55968.214    
        40   16.186228      16.186228      173.68088      70.088424           8214   2             -55968.243      16.186228      173.68088      70.088424      61658.696      2.1232271     -55968.243    
        42   16.186228      16.186228      173.68088      70.088424           8214   2             -55968.29       16.186228      173.68088      70.088424      61638.902      2.1232271     -55968.29     
        44   16.186228      16.186228      173.68088      70.088424           8214   2             -55968.313      16.186228      173.68088      70.088424      61638.752      2.1232271     -55968.313    
        46   16.186228      16.186228      173.68088      70.088424           8214   2             -55968.316      16.186228      173.68088      70.088424      61637.628      2.1232271     -55968.316    
        48   16.186228      16.186228      173.68088      70.088424           8214   2             -55968.318      16.186228      173.68088      70.088424      61638.071      2.1232271     -55968.318    
        50   16.186228      16.186228      173.68088      70.088424           8214   2             -55968.321      16.186228      173.68088      70.088424      61638.006      2.1232271     -55968.321    
        52   16.186228      16.186228      173.68088      70.088424           8214   2             -55968.324      16.186228      173.68088      70.088424      61636.38       2.1232271     -55968.324    
        54   16.186228      16.186228      173.68088      70.088424           8214   2             -55968.329      16.186228      173.68088      70.088424      61636.751      2.1232271     -55968.329    
        56   16.186228      16.186228      173.68088      70.088424           8214   2             -55968.331      16.186228      173.68088      70.088424      61636.007      2.1232271     -55968.331    
Loop time of 0.539937 on 1 procs for 56 steps with 8214 atoms

100.0% CPU use with 1 MPI tasks x 1 OpenMP threads

Minimization stats:
  Stopping criterion = energy tolerance
  Energy initial, next-to-last, final = 
     -55929.4953214553  -55968.3308485599  -55968.3311206081
  Force two-norm initial, final = 18.637212 0.035259759
  Force max component initial, final = 3.691664 0.0018213565
  Final line search alpha, max atom move = 0.125 0.00022766956
  Iterations, force evaluations = 56 157

MPI task timing breakdown:
Section |  min time  |  avg time  |  max time  |%varavg| %total
---------------------------------------------------------------
Pair    | 0.51863    | 0.51863    | 0.51863    |   0.0 | 96.05
Neigh   | 0          | 0          | 0          |   0.0 |  0.00
Comm    | 0.0035983  | 0.0035983  | 0.0035983  |   0.0 |  0.67
Output  | 0.0015367  | 0.0015367  | 0.0015367  |   0.0 |  0.28
Modify  | 0.0029618  | 0.0029618  | 0.0029618  |   0.0 |  0.55
Other   |            | 0.01321    |            |       |  2.45

Nlocal:           8214 ave        8214 max        8214 min
Histogram: 1 0 0 0 0 0 0 0 0 0
Nghost:           6190 ave        6190 max        6190 min
Histogram: 1 0 0 0 0 0 0 0 0 0
Neighs:         225064 ave      225064 max      225064 min
Histogram: 1 0 0 0 0 0 0 0 0 0

Total # of neighbors = 225064
Ave neighs/atom = 27.400049
Neighbor list builds = 0
Dangerous builds = 0
Total wall time: 0:00:00
LAMMPS (27 Jun 2024)
OMP_NUM_THREADS environment is not set. Defaulting to 1 thread. (src/comm.cpp:98)
  using 1 OpenMP thread(s) per MPI task
Reading data file ...
  orthogonal box = (0 0 0) to (16.186228 171.68088 70.088424)
  1 by 1 by 1 MPI processor grid
  reading atoms ...
  8214 atoms
  read_data CPU = 0.013 seconds
System init for write_data ...
Neighbor list info ...
  update: every = 1 steps, delay = 5 steps, check = yes
  max neighbors/atom: 2000, page size: 100000
  master list distance cutoff = 6.2
  ghost atom cutoff = 6.2
  binsize = 3.1, bins = 6 56 23
  1 neighbor lists, perpetual/occasional/extra = 1 0 0
  (1) pair eam/fs, perpetual
      attributes: half, newton on
      pair build: half/bin/atomonly/newton
      stencil: half/bin/3d
      bin: standard
0 atoms in group ulayer
Deleted 0 atoms, new total = 8214
44 atoms in group lb
360 atoms in group bb
92 atoms in group rb
354 atoms in group ub
Changing box ...
  orthogonal box = (0 0 0) to (16.186228 173.68088 70.088424)

CITE-CITE-CITE-CITE-CITE-CITE-CITE-CITE-CITE-CITE-CITE-CITE-CITE

Your simulation uses code contributions which should be cited:
- Type Label Framework: https://doi.org/10.1021/acs.jpcb.3c08419
The log file lists these citations in BibTeX format.

CITE-CITE-CITE-CITE-CITE-CITE-CITE-CITE-CITE-CITE-CITE-CITE-CITE

Switching to 'neigh_modify every 1 delay 0 check yes' setting during minimization
Setting up cg style minimization ...
  Unit style    : metal
  Current step  : 0
WARNING: A per-atom density exceeded rhomax of EAM potential table - a linear extrapolation to the energy was made (src/MANYBODY/pair_eam.cpp:334)
Per MPI rank memory allocation (min/avg/max) = 5.944 | 5.944 | 5.944 Mbytes
   Step           Lx             Lx             Ly             Lz          Atoms         Temp          PotEng           Lx             Ly             Lz           Press          c_KET          c_PET     
         0   16.186228      16.186228      173.68088      70.088424           8214   2             -55015.804      16.186228      173.68088      70.088424      75155.365      2.1232271     -55015.804    
         2   16.186228      16.186228      173.68088      70.088424           8214   2             -55031.054      16.186228      173.68088      70.088424      75115.214      2.1232271     -55031.054    
         4   16.186228      16.186228      173.68088      70.088424           8214   2             -55040.967      16.186228      173.68088      70.088424      75009.487      2.1232271     -55040.967    
         6   16.186228      16.186228      173.68088      70.088424           8214   2             -55048.734      16.186228      173.68088      70.088424      74701.479      2.1232271     -55048.734    
         8   16.186228      16.186228      173.68088      70.088424           8214   2             -55051.572      16.186228      173.68088      70.088424      74508.769      2.1232271     -55051.572    
        10   16.186228      16.186228      173.68088      70.088424           8214   2             -55053.802      16.186228      173.68088      70.088424      74224.039      2.1232271     -55053.802    
        12   16.186228      16.186228      173.68088      70.088424           8214   2             -55054.36       16.186228      173.68088      70.088424      74224.03       2.1232271     -55054.36     
        14   16.186228      16.186228      173.68088      70.088424           8214   2             -55054.873      16.186228      173.68088      70.088424      74211.873      2.1232271     -55054.873    
        16   16.186228      16.186228      173.68088      70.088424           8214   2             -55055.303      16.186228      173.68088      70.088424      74116.766      2.1232271     -55055.303    
        18   16.186228      16.186228      173.68088      70.088424           8214   2             -55055.546      16.186228      173.68088      70.088424      74090.481      2.1232271     -55055.546    
        20   16.186228      16.186228      173.68088      70.088424           8214   2             -55055.68       16.186228      173.68088      70.088424      74064.053      2.1232271     -55055.68     
        22   16.186228      16.186228      173.68088      70.088424           8214   2             -55055.809      16.186228      173.68088      70.088424      74041.275      2.1232271     -55055.809    
        24   16.186228      16.186228      173.68088      70.088424           8214   2             -55055.911      16.186228      173.68088      70.088424      74042.841      2.1232271     -55055.911    
        26   16.186228      16.186228      173.68088      70.088424           8214   2             -55056.034      16.186228      173.68088      70.088424      74045.898      2.1232271     -55056.034    
        28   16.186228      16.186228      173.68088      70.088424           8214   2             -55056.098      16.186228      173.68088      70.088424      74043.954      2.1232271     -55056.098    
        30   16.186228      16.186228      173.68088      70.088424           8214   2             -55056.136      16.186228      173.68088      70.088424      74030.736      2.1232271     -55056.136    
        32   16.186228      16.186228      173.68088      70.088424           8214   2             -55056.184      16.186228      173.68088      70.088424      74003.123      2.1232271     -55056.184    
        34   16.186228      16.186228      173.68088      70.088424           8214   2             -55056.198      16.186228      173.68088      70.088424      73998.265      2.1232271     -55056.198    
        36   16.186228      16.186228      173.68088      70.088424           8214   2             -55056.213      16.186228      173.68088      70.088424      74005.749      2.1232271     -55056.213    
        38   16.186228      16.186228      173.68088      70.088424           8214   2             -55056.237      16.186228      173.68088      70.088424      74013.981      2.1232271     -55056.237    
        40   16.186228      16.186228      173.68088      70.088424           8214   2             -55056.269      16.186228      173.68088      70.088424      74002.36       2.1232271     -55056.269    
        42   16.186228      16.186228      173.68088      70.088424           8214   2             -55056.292      16.186228      173.68088      70.088424      73982.412      2.1232271     -55056.292    
        44   16.186228      16.186228      173.68088      70.088424           8214   2             -55056.319      16.186228      173.68088      70.088424      73974.799      2.1232271     -55056.319    
        46   16.186228      16.186228      173.68088      70.088424           8214   2             -55056.333      16.186228      173.68088      70.088424      73980.237      2.1232271     -55056.333    
        48   16.186228      16.186228      173.68088      70.088424           8214   2             -55056.335      16.186228      173.68088      70.088424      73980.262      2.1232271     -55056.335    
        50   16.186228      16.186228      173.68088      70.088424           8214   2             -55056.338      16.186228      173.68088      70.088424      73979.951      2.1232271     -55056.338    
        51   16.186228      16.186228      173.68088      70.088424           8214   2             -55056.338      16.186228      173.68088      70.088424      73979.49       2.1232271     -55056.338    
Loop time of 0.502681 on 1 procs for 51 steps with 8214 atoms

98.3% CPU use with 1 MPI tasks x 1 OpenMP threads

Minimization stats:
  Stopping criterion = energy tolerance
  Energy initial, next-to-last, final = 
     -55015.8036065462  -55056.3376623743  -55056.3381812901
  Force two-norm initial, final = 18.864379 0.051601211
  Force max component initial, final = 3.7211857 0.0026427356
  Final line search alpha, max atom move = 0.125 0.00033034195
  Iterations, force evaluations = 51 145

MPI task timing breakdown:
Section |  min time  |  avg time  |  max time  |%varavg| %total
---------------------------------------------------------------
Pair    | 0.48254    | 0.48254    | 0.48254    |   0.0 | 95.99
Neigh   | 0          | 0          | 0          |   0.0 |  0.00
Comm    | 0.0035135  | 0.0035135  | 0.0035135  |   0.0 |  0.70
Output  | 0.001471   | 0.001471   | 0.001471   |   0.0 |  0.29
Modify  | 0.0027753  | 0.0027753  | 0.0027753  |   0.0 |  0.55
Other   |            | 0.01238    |            |       |  2.46

Nlocal:           8214 ave        8214 max        8214 min
Histogram: 1 0 0 0 0 0 0 0 0 0
Nghost:           6190 ave        6190 max        6190 min
Histogram: 1 0 0 0 0 0 0 0 0 0
Neighs:         225064 ave      225064 max      225064 min
Histogram: 1 0 0 0 0 0 0 0 0 0

Total # of neighbors = 225064
Ave neighs/atom = 27.400049
Neighbor list builds = 0
Dangerous builds = 0
Total wall time: 0:00:00
LAMMPS (27 Jun 2024)
OMP_NUM_THREADS environment is not set. Defaulting to 1 thread. (src/comm.cpp:98)
  using 1 OpenMP thread(s) per MPI task
Reading data file ...
  orthogonal box = (0 0 0) to (16.186228 171.68088 70.088424)
  1 by 1 by 1 MPI processor grid
  reading atoms ...
  8214 atoms
  read_data CPU = 0.013 seconds
System init for write_data ...
Neighbor list info ...
  update: every = 1 steps, delay = 5 steps, check = yes
  max neighbors/atom: 2000, page size: 100000
  master list distance cutoff = 6.2
  ghost atom cutoff = 6.2
  binsize = 3.1, bins = 6 56 23
  1 neighbor lists, perpetual/occasional/extra = 1 0 0
  (1) pair eam/fs, perpetual
      attributes: half, newton on
      pair build: half/bin/atomonly/newton
      stencil: half/bin/3d
      bin: standard
0 atoms in group ulayer
Deleted 0 atoms, new total = 8214
44 atoms in group lb
360 atoms in group bb
92 atoms in group rb
354 atoms in group ub
Changing box ...
  orthogonal box = (0 0 0) to (16.186228 173.68088 70.088424)

CITE-CITE-CITE-CITE-CITE-CITE-CITE-CITE-CITE-CITE-CITE-CITE-CITE

Your simulation uses code contributions which should be cited:
- Type Label Framework: https://doi.org/10.1021/acs.jpcb.3c08419
The log file lists these citations in BibTeX format.

CITE-CITE-CITE-CITE-CITE-CITE-CITE-CITE-CITE-CITE-CITE-CITE-CITE

Switching to 'neigh_modify every 1 delay 0 check yes' setting during minimization
Setting up cg style minimization ...
  Unit style    : metal
  Current step  : 0
WARNING: A per-atom density exceeded rhomax of EAM potential table - a linear extrapolation to the energy was made (src/MANYBODY/pair_eam.cpp:334)
Per MPI rank memory allocation (min/avg/max) = 5.944 | 5.944 | 5.944 Mbytes
   Step           Lx             Lx             Ly             Lz          Atoms         Temp          PotEng           Lx             Ly             Lz           Press          c_KET          c_PET     
         0   16.186228      16.186228      173.68088      70.088424           8214   2             -55906.878      16.186228      173.68088      70.088424      62912.099      2.1232271     -55906.878    
         2   16.186228      16.186228      173.68088      70.088424           8214   2             -55921.844      16.186228      173.68088      70.088424      62885.257      2.1232271     -55921.844    
         4   16.186228      16.186228      173.68088      70.088424           8214   2             -55931.432      16.186228      173.68088      70.088424      62799.096      2.1232271     -55931.432    
         6   16.186228      16.186228      173.68088      70.088424           8214   2             -55938.763      16.186228      173.68088      70.088424      62525.943      2.1232271     -55938.763    
         8   16.186228      16.186228      173.68088      70.088424           8214   2             -55941.413      16.186228      173.68088      70.088424      62351.36       2.1232271     -55941.413    
        10   16.186228      16.186228      173.68088      70.088424           8214   2             -55943.471      16.186228      173.68088      70.088424      62092.593      2.1232271     -55943.471    
        12   16.186228      16.186228      173.68088      70.088424           8214   2             -55944.189      16.186228      173.68088      70.088424      62026.699      2.1232271     -55944.189    
        14   16.186228      16.186228      173.68088      70.088424           8214   2             -55944.514      16.186228      173.68088      70.088424      62021.236      2.1232271     -55944.514    
        16   16.186228      16.186228      173.68088      70.088424           8214   2             -55944.711      16.186228      173.68088      70.088424      62024.104      2.1232271     -55944.711    
        18   16.186228      16.186228      173.68088      70.088424           8214   2             -55944.925      16.186228      173.68088      70.088424      62023.429      2.1232271     -55944.925    
        20   16.186228      16.186228      173.68088      70.088424           8214   2             -55945.118      16.186228      173.68088      70.088424      61999.524      2.1232271     -55945.118    
        22   16.186228      16.186228      173.68088      70.088424           8214   2             -55945.291      16.186228      173.68088      70.088424      61968.225      2.1232271     -55945.291    
        24   16.186228      16.186228      173.68088      70.088424           8214   2             -55945.354      16.186228      173.68088      70.088424      61959.819      2.1232271     -55945.354    
        26   16.186228      16.186228      173.68088      70.088424           8214   2             -55945.427      16.186228      173.68088      70.088424      61928.253      2.1232271     -55945.427    
        28   16.186228      16.186228      173.68088      70.088424           8214   2             -55945.493      16.186228      173.68088      70.088424      61915.239      2.1232271     -55945.493    
        30   16.186228      16.186228      173.68088      70.088424           8214   2             -55945.548      16.186228      173.68088      70.088424      61922.022      2.1232271     -55945.548    
        32   16.186228      16.186228      173.68088      70.088424           8214   2             -55945.595      16.186228      173.68088      70.088424      61923.797      2.1232271     -55945.595    
        34   16.186228      16.186228      173.68088      70.088424           8214   2             -55945.655      16.186228      173.68088      70.088424      61916.072      2.1232271     -55945.655    
        36   16.186228      16.186228      173.68088      70.088424           8214   2             -55945.676      16.186228      173.68088      70.088424      61913.336      2.1232271     -55945.676    
        38   16.186228      16.186228      173.68088      70.088424           8214   2             -55945.684      16.186228      173.68088      70.088424      61908.19       2.1232271     -55945.684    
        40   16.186228      16.186228      173.68088      70.088424           8214   2             -55945.693      16.186228      173.68088      70.088424      61899.261      2.1232271     -55945.693    
        42   16.186228      16.186228      173.68088      70.088424           8214   2             -55945.698      16.186228      173.68088      70.088424      61897.448      2.1232271     -55945.698    
        44   16.186228      16.186228      173.68088      70.088424           8214   2             -55945.713      16.186228      173.68088      70.088424      61895.162      2.1232271     -55945.713    
        46   16.186228      16.186228      173.68088      70.088424           8214   2             -55945.728      16.186228      173.68088      70.088424      61895.667      2.1232271     -55945.728    
        48   16.186228      16.186228      173.68088      70.088424           8214   2             -55945.736      16.186228      173.68088      70.088424      61894.819      2.1232271     -55945.736    
        50   16.186228      16.186228      173.68088      70.088424           8214   2             -55945.738      16.186228      173.68088      70.088424      61890.469      2.1232271     -55945.738    
        51   16.186228      16.186228      173.68088      70.088424           8214   2             -55945.739      16.186228      173.68088      70.088424      61889.521      2.1232271     -55945.739    
Loop time of 0.546522 on 1 procs for 51 steps with 8214 atoms

99.4% CPU use with 1 MPI tasks x 1 OpenMP threads

Minimization stats:
  Stopping criterion = energy tolerance
  Energy initial, next-to-last, final = 
     -55906.8777542006  -55945.7380054837  -55945.7385532615
  Force two-norm initial, final = 18.638581 0.06432059
  Force max component initial, final = 3.6910728 0.0048846555
  Final line search alpha, max atom move = 0.25 0.0012211639
  Iterations, force evaluations = 51 139

MPI task timing breakdown:
Section |  min time  |  avg time  |  max time  |%varavg| %total
---------------------------------------------------------------
Pair    | 0.5253     | 0.5253     | 0.5253     |   0.0 | 96.12
Neigh   | 0          | 0          | 0          |   0.0 |  0.00
Comm    | 0.0036145  | 0.0036145  | 0.0036145  |   0.0 |  0.66
Output  | 0.0015495  | 0.0015495  | 0.0015495  |   0.0 |  0.28
Modify  | 0.0030319  | 0.0030319  | 0.0030319  |   0.0 |  0.55
Other   |            | 0.01303    |            |       |  2.38

Nlocal:           8214 ave        8214 max        8214 min
Histogram: 1 0 0 0 0 0 0 0 0 0
Nghost:           6190 ave        6190 max        6190 min
Histogram: 1 0 0 0 0 0 0 0 0 0
Neighs:         225064 ave      225064 max      225064 min
Histogram: 1 0 0 0 0 0 0 0 0 0

Total # of neighbors = 225064
Ave neighs/atom = 27.400049
Neighbor list builds = 0
Dangerous builds = 0
Total wall time: 0:00:00
LAMMPS (27 Jun 2024)
OMP_NUM_THREADS environment is not set. Defaulting to 1 thread. (src/comm.cpp:98)
  using 1 OpenMP thread(s) per MPI task
Reading data file ...
  orthogonal box = (0 0 0) to (16.186228 171.68088 70.088424)
  1 by 1 by 1 MPI processor grid
  reading atoms ...
  8214 atoms
  read_data CPU = 0.014 seconds
System init for write_data ...
Neighbor list info ...
  update: every = 1 steps, delay = 5 steps, check = yes
  max neighbors/atom: 2000, page size: 100000
  master list distance cutoff = 6.2
  ghost atom cutoff = 6.2
  binsize = 3.1, bins = 6 56 23
  1 neighbor lists, perpetual/occasional/extra = 1 0 0
  (1) pair eam/fs, perpetual
      attributes: half, newton on
      pair build: half/bin/atomonly/newton
      stencil: half/bin/3d
      bin: standard
0 atoms in group ulayer
Deleted 0 atoms, new total = 8214
44 atoms in group lb
360 atoms in group bb
92 atoms in group rb
354 atoms in group ub
Changing box ...
  orthogonal box = (0 0 0) to (16.186228 173.68088 70.088424)

CITE-CITE-CITE-CITE-CITE-CITE-CITE-CITE-CITE-CITE-CITE-CITE-CITE

Your simulation uses code contributions which should be cited:
- Type Label Framework: https://doi.org/10.1021/acs.jpcb.3c08419
The log file lists these citations in BibTeX format.

CITE-CITE-CITE-CITE-CITE-CITE-CITE-CITE-CITE-CITE-CITE-CITE-CITE

Switching to 'neigh_modify every 1 delay 0 check yes' setting during minimization
Setting up cg style minimization ...
  Unit style    : metal
  Current step  : 0
WARNING: A per-atom density exceeded rhomax of EAM potential table - a linear extrapolation to the energy was made (src/MANYBODY/pair_eam.cpp:334)
Per MPI rank memory allocation (min/avg/max) = 5.944 | 5.944 | 5.944 Mbytes
   Step           Lx             Lx             Ly             Lz          Atoms         Temp          PotEng           Lx             Ly             Lz           Press          c_KET          c_PET     
         0   16.186228      16.186228      173.68088      70.088424           8214   2             -56604.274      16.186228      173.68088      70.088424      56753.861      2.1232271     -56604.274    
         2   16.186228      16.186228      173.68088      70.088424           8214   2             -56619.125      16.186228      173.68088      70.088424      56734.918      2.1232271     -56619.125    
         4   16.186228      16.186228      173.68088      70.088424           8214   2             -56628.556      16.186228      173.68088      70.088424      56659.678      2.1232271     -56628.556    
         6   16.186228      16.186228      173.68088      70.088424           8214   2             -56635.664      16.186228      173.68088      70.088424      56404.958      2.1232271     -56635.664    
         8   16.186228      16.186228      173.68088      70.088424           8214   2             -56638.213      16.186228      173.68088      70.088424      56239.883      2.1232271     -56638.213    
        10   16.186228      16.186228      173.68088      70.088424           8214   2             -56640.169      16.186228      173.68088      70.088424      55995.116      2.1232271     -56640.169    
        12   16.186228      16.186228      173.68088      70.088424           8214   2             -56640.859      16.186228      173.68088      70.088424      55898.425      2.1232271     -56640.859    
        14   16.186228      16.186228      173.68088      70.088424           8214   2             -56641.196      16.186228      173.68088      70.088424      55899.974      2.1232271     -56641.196    
        16   16.186228      16.186228      173.68088      70.088424           8214   2             -56641.422      16.186228      173.68088      70.088424      55918.161      2.1232271     -56641.422    
        18   16.186228      16.186228      173.68088      70.088424           8214   2             -56641.601      16.186228      173.68088      70.088424      55928.792      2.1232271     -56641.601    
        20   16.186228      16.186228      173.68088      70.088424           8214   2             -56641.706      16.186228      173.68088      70.088424      55918.679      2.1232271     -56641.706    
        22   16.186228      16.186228      173.68088      70.088424           8214   2             -56641.824      16.186228      173.68088      70.088424      55888.312      2.1232271     -56641.824    
        24   16.186228      16.186228      173.68088      70.088424           8214   2             -56641.975      16.186228      173.68088      70.088424      55842.865      2.1232271     -56641.975    
        26   16.186228      16.186228      173.68088      70.088424           8214   2             -56642.104      16.186228      173.68088      70.088424      55815.304      2.1232271     -56642.104    
        28   16.186228      16.186228      173.68088      70.088424           8214   2             -56642.194      16.186228      173.68088      70.088424      55806.518      2.1232271     -56642.194    
        30   16.186228      16.186228      173.68088      70.088424           8214   2             -56642.224      16.186228      173.68088      70.088424      55803.208      2.1232271     -56642.224    
        32   16.186228      16.186228      173.68088      70.088424           8214   2             -56642.237      16.186228      173.68088      70.088424      55801.583      2.1232271     -56642.237    
        34   16.186228      16.186228      173.68088      70.088424           8214   2             -56642.255      16.186228      173.68088      70.088424      55802.587      2.1232271     -56642.255    
        36   16.186228      16.186228      173.68088      70.088424           8214   2             -56642.272      16.186228      173.68088      70.088424      55809.56       2.1232271     -56642.272    
        38   16.186228      16.186228      173.68088      70.088424           8214   2             -56642.286      16.186228      173.68088      70.088424      55817.924      2.1232271     -56642.286    
        40   16.186228      16.186228      173.68088      70.088424           8214   2             -56642.29       16.186228      173.68088      70.088424      55817.93       2.1232271     -56642.29     
        42   16.186228      16.186228      173.68088      70.088424           8214   2             -56642.295      16.186228      173.68088      70.088424      55815.346      2.1232271     -56642.295    
        44   16.186228      16.186228      173.68088      70.088424           8214   2             -56642.298      16.186228      173.68088      70.088424      55813.779      2.1232271     -56642.298    
        46   16.186228      16.186228      173.68088      70.088424           8214   2             -56642.3        16.186228      173.68088      70.088424      55812.866      2.1232271     -56642.3      
        48   16.186228      16.186228      173.68088      70.088424           8214   2             -56642.302      16.186228      173.68088      70.088424      55811.178      2.1232271     -56642.302    
        50   16.186228      16.186228      173.68088      70.088424           8214   2             -56642.306      16.186228      173.68088      70.088424      55808.58       2.1232271     -56642.306    
        52   16.186228      16.186228      173.68088      70.088424           8214   2             -56642.31       16.186228      173.68088      70.088424      55807.103      2.1232271     -56642.31     
        54   16.186228      16.186228      173.68088      70.088424           8214   2             -56642.312      16.186228      173.68088      70.088424      55806.697      2.1232271     -56642.312    
        55   16.186228      16.186228      173.68088      70.088424           8214   2             -56642.312      16.186228      173.68088      70.088424      55806.593      2.1232271     -56642.312    
Loop time of 0.603104 on 1 procs for 55 steps with 8214 atoms

98.6% CPU use with 1 MPI tasks x 1 OpenMP threads

Minimization stats:
  Stopping criterion = energy tolerance
  Energy initial, next-to-last, final = 
      -56604.274050876  -56642.3115922168  -56642.3118848417
  Force two-norm initial, final = 18.635473 0.087387505
  Force max component initial, final = 3.7117969 0.0053075804
  Final line search alpha, max atom move = 0.125 0.00066344754
  Iterations, force evaluations = 55 156

MPI task timing breakdown:
Section |  min time  |  avg time  |  max time  |%varavg| %total
---------------------------------------------------------------
Pair    | 0.57957    | 0.57957    | 0.57957    |   0.0 | 96.10
Neigh   | 0          | 0          | 0          |   0.0 |  0.00
Comm    | 0.0041985  | 0.0041985  | 0.0041985  |   0.0 |  0.70
Output  | 0.0017194  | 0.0017194  | 0.0017194  |   0.0 |  0.29
Modify  | 0.0033387  | 0.0033387  | 0.0033387  |   0.0 |  0.55
Other   |            | 0.01428    |            |       |  2.37

Nlocal:           8214 ave        8214 max        8214 min
Histogram: 1 0 0 0 0 0 0 0 0 0
Nghost:           6190 ave        6190 max        6190 min
Histogram: 1 0 0 0 0 0 0 0 0 0
Neighs:         225064 ave      225064 max      225064 min
Histogram: 1 0 0 0 0 0 0 0 0 0

Total # of neighbors = 225064
Ave neighs/atom = 27.400049
Neighbor list builds = 0
Dangerous builds = 0
Total wall time: 0:00:00
LAMMPS (27 Jun 2024)
OMP_NUM_THREADS environment is not set. Defaulting to 1 thread. (src/comm.cpp:98)
  using 1 OpenMP thread(s) per MPI task
Reading data file ...
  orthogonal box = (0 0 0) to (16.186228 171.68088 70.088424)
  1 by 1 by 1 MPI processor grid
  reading atoms ...
  8214 atoms
  read_data CPU = 0.014 seconds
System init for write_data ...
Neighbor list info ...
  update: every = 1 steps, delay = 5 steps, check = yes
  max neighbors/atom: 2000, page size: 100000
  master list distance cutoff = 6.2
  ghost atom cutoff = 6.2
  binsize = 3.1, bins = 6 56 23
  1 neighbor lists, perpetual/occasional/extra = 1 0 0
  (1) pair eam/fs, perpetual
      attributes: half, newton on
      pair build: half/bin/atomonly/newton
      stencil: half/bin/3d
      bin: standard
0 atoms in group ulayer
Deleted 0 atoms, new total = 8214
44 atoms in group lb
360 atoms in group bb
92 atoms in group rb
354 atoms in group ub
Changing box ...
  orthogonal box = (0 0 0) to (16.186228 173.68088 70.088424)

CITE-CITE-CITE-CITE-CITE-CITE-CITE-CITE-CITE-CITE-CITE-CITE-CITE

Your simulation uses code contributions which should be cited:
- Type Label Framework: https://doi.org/10.1021/acs.jpcb.3c08419
The log file lists these citations in BibTeX format.

CITE-CITE-CITE-CITE-CITE-CITE-CITE-CITE-CITE-CITE-CITE-CITE-CITE

Switching to 'neigh_modify every 1 delay 0 check yes' setting during minimization
Setting up cg style minimization ...
  Unit style    : metal
  Current step  : 0
WARNING: A per-atom density exceeded rhomax of EAM potential table - a linear extrapolation to the energy was made (src/MANYBODY/pair_eam.cpp:334)
Per MPI rank memory allocation (min/avg/max) = 5.944 | 5.944 | 5.944 Mbytes
   Step           Lx             Lx             Ly             Lz          Atoms         Temp          PotEng           Lx             Ly             Lz           Press          c_KET          c_PET     
         0   16.186228      16.186228      173.68088      70.088424           8214   2             -55874.631      16.186228      173.68088      70.088424      63387.89       2.1232271     -55874.631    
         2   16.186228      16.186228      173.68088      70.088424           8214   2             -55889.608      16.186228      173.68088      70.088424      63360.487      2.1232271     -55889.608    
         4   16.186228      16.186228      173.68088      70.088424           8214   2             -55899.207      16.186228      173.68088      70.088424      63273.524      2.1232271     -55899.207    
         6   16.186228      16.186228      173.68088      70.088424           8214   2             -55906.552      16.186228      173.68088      70.088424      62999.009      2.1232271     -55906.552    
         8   16.186228      16.186228      173.68088      70.088424           8214   2             -55909.208      16.186228      173.68088      70.088424      62823.841      2.1232271     -55909.208    
        10   16.186228      16.186228      173.68088      70.088424           8214   2             -55911.272      16.186228      173.68088      70.088424      62564.177      2.1232271     -55911.272    
        12   16.186228      16.186228      173.68088      70.088424           8214   2             -55911.988      16.186228      173.68088      70.088424      62500.498      2.1232271     -55911.988    
        14   16.186228      16.186228      173.68088      70.088424           8214   2             -55912.314      16.186228      173.68088      70.088424      62494.509      2.1232271     -55912.314    
        16   16.186228      16.186228      173.68088      70.088424           8214   2             -55912.511      16.186228      173.68088      70.088424      62496.264      2.1232271     -55912.511    
        18   16.186228      16.186228      173.68088      70.088424           8214   2             -55912.73       16.186228      173.68088      70.088424      62494.609      2.1232271     -55912.73     
        20   16.186228      16.186228      173.68088      70.088424           8214   2             -55912.922      16.186228      173.68088      70.088424      62469.482      2.1232271     -55912.922    
        22   16.186228      16.186228      173.68088      70.088424           8214   2             -55913.108      16.186228      173.68088      70.088424      62438.256      2.1232271     -55913.108    
        24   16.186228      16.186228      173.68088      70.088424           8214   2             -55913.164      16.186228      173.68088      70.088424      62429.385      2.1232271     -55913.164    
        26   16.186228      16.186228      173.68088      70.088424           8214   2             -55913.22       16.186228      173.68088      70.088424      62412.454      2.1232271     -55913.22     
        28   16.186228      16.186228      173.68088      70.088424           8214   2             -55913.298      16.186228      173.68088      70.088424      62389.198      2.1232271     -55913.298    
        30   16.186228      16.186228      173.68088      70.088424           8214   2             -55913.415      16.186228      173.68088      70.088424      62350.735      2.1232271     -55913.415    
        32   16.186228      16.186228      173.68088      70.088424           8214   2             -55913.461      16.186228      173.68088      70.088424      62352.086      2.1232271     -55913.461    
        34   16.186228      16.186228      173.68088      70.088424           8214   2             -55913.483      16.186228      173.68088      70.088424      62357.38       2.1232271     -55913.483    
        36   16.186228      16.186228      173.68088      70.088424           8214   2             -55913.5        16.186228      173.68088      70.088424      62369.523      2.1232271     -55913.5      
        38   16.186228      16.186228      173.68088      70.088424           8214   2             -55913.507      16.186228      173.68088      70.088424      62371.192      2.1232271     -55913.507    
        40   16.186228      16.186228      173.68088      70.088424           8214   2             -55913.517      16.186228      173.68088      70.088424      62367.336      2.1232271     -55913.517    
        42   16.186228      16.186228      173.68088      70.088424           8214   2             -55913.537      16.186228      173.68088      70.088424      62357.937      2.1232271     -55913.537    
        44   16.186228      16.186228      173.68088      70.088424           8214   2             -55913.545      16.186228      173.68088      70.088424      62350.551      2.1232271     -55913.545    
        46   16.186228      16.186228      173.68088      70.088424           8214   2             -55913.551      16.186228      173.68088      70.088424      62345.3        2.1232271     -55913.551    
        48   16.186228      16.186228      173.68088      70.088424           8214   2             -55913.554      16.186228      173.68088      70.088424      62348.216      2.1232271     -55913.554    
        50   16.186228      16.186228      173.68088      70.088424           8214   2             -55913.558      16.186228      173.68088      70.088424      62351.349      2.1232271     -55913.558    
        52   16.186228      16.186228      173.68088      70.088424           8214   2             -55913.56       16.186228      173.68088      70.088424      62351.473      2.1232271     -55913.56     
Loop time of 0.526572 on 1 procs for 52 steps with 8214 atoms

97.7% CPU use with 1 MPI tasks x 1 OpenMP threads

Minimization stats:
  Stopping criterion = energy tolerance
  Energy initial, next-to-last, final = 
     -55874.6313327168  -55913.5593282686  -55913.5598069816
  Force two-norm initial, final = 18.64302 0.052463225
  Force max component initial, final = 3.6903673 0.0034377621
  Final line search alpha, max atom move = 0.125 0.00042972027
  Iterations, force evaluations = 52 143

MPI task timing breakdown:
Section |  min time  |  avg time  |  max time  |%varavg| %total
---------------------------------------------------------------
Pair    | 0.50571    | 0.50571    | 0.50571    |   0.0 | 96.04
Neigh   | 0          | 0          | 0          |   0.0 |  0.00
Comm    | 0.0035235  | 0.0035235  | 0.0035235  |   0.0 |  0.67
Output  | 0.0017183  | 0.0017183  | 0.0017183  |   0.0 |  0.33
Modify  | 0.0029393  | 0.0029393  | 0.0029393  |   0.0 |  0.56
Other   |            | 0.01268    |            |       |  2.41

Nlocal:           8214 ave        8214 max        8214 min
Histogram: 1 0 0 0 0 0 0 0 0 0
Nghost:           6190 ave        6190 max        6190 min
Histogram: 1 0 0 0 0 0 0 0 0 0
Neighs:         225064 ave      225064 max      225064 min
Histogram: 1 0 0 0 0 0 0 0 0 0

Total # of neighbors = 225064
Ave neighs/atom = 27.400049
Neighbor list builds = 0
Dangerous builds = 0
Total wall time: 0:00:00
LAMMPS (27 Jun 2024)
OMP_NUM_THREADS environment is not set. Defaulting to 1 thread. (src/comm.cpp:98)
  using 1 OpenMP thread(s) per MPI task
Reading data file ...
  orthogonal box = (0 0 0) to (16.186228 171.68088 70.088424)
  1 by 1 by 1 MPI processor grid
  reading atoms ...
  8214 atoms
  read_data CPU = 0.013 seconds
System init for write_data ...
Neighbor list info ...
  update: every = 1 steps, delay = 5 steps, check = yes
  max neighbors/atom: 2000, page size: 100000
  master list distance cutoff = 6.2
  ghost atom cutoff = 6.2
  binsize = 3.1, bins = 6 56 23
  1 neighbor lists, perpetual/occasional/extra = 1 0 0
  (1) pair eam/fs, perpetual
      attributes: half, newton on
      pair build: half/bin/atomonly/newton
      stencil: half/bin/3d
      bin: standard
0 atoms in group ulayer
Deleted 0 atoms, new total = 8214
44 atoms in group lb
360 atoms in group bb
92 atoms in group rb
354 atoms in group ub
Changing box ...
  orthogonal box = (0 0 0) to (16.186228 173.68088 70.088424)

CITE-CITE-CITE-CITE-CITE-CITE-CITE-CITE-CITE-CITE-CITE-CITE-CITE

Your simulation uses code contributions which should be cited:
- Type Label Framework: https://doi.org/10.1021/acs.jpcb.3c08419
The log file lists these citations in BibTeX format.

CITE-CITE-CITE-CITE-CITE-CITE-CITE-CITE-CITE-CITE-CITE-CITE-CITE

Switching to 'neigh_modify every 1 delay 0 check yes' setting during minimization
Setting up cg style minimization ...
  Unit style    : metal
  Current step  : 0
WARNING: A per-atom density exceeded rhomax of EAM potential table - a linear extrapolation to the energy was made (src/MANYBODY/pair_eam.cpp:334)
Per MPI rank memory allocation (min/avg/max) = 5.944 | 5.944 | 5.944 Mbytes
   Step           Lx             Lx             Ly             Lz          Atoms         Temp          PotEng           Lx             Ly             Lz           Press          c_KET          c_PET     
         0   16.186228      16.186228      173.68088      70.088424           8214   2             -55910.562      16.186228      173.68088      70.088424      62910.295      2.1232271     -55910.562    
         2   16.186228      16.186228      173.68088      70.088424           8214   2             -55925.528      16.186228      173.68088      70.088424      62883.464      2.1232271     -55925.528    
         4   16.186228      16.186228      173.68088      70.088424           8214   2             -55935.116      16.186228      173.68088      70.088424      62797.313      2.1232271     -55935.116    
         6   16.186228      16.186228      173.68088      70.088424           8214   2             -55942.446      16.186228      173.68088      70.088424      62524.178      2.1232271     -55942.446    
         8   16.186228      16.186228      173.68088      70.088424           8214   2             -55945.096      16.186228      173.68088      70.088424      62349.626      2.1232271     -55945.096    
        10   16.186228      16.186228      173.68088      70.088424           8214   2             -55947.153      16.186228      173.68088      70.088424      62090.896      2.1232271     -55947.153    
        12   16.186228      16.186228      173.68088      70.088424           8214   2             -55947.871      16.186228      173.68088      70.088424      62024.967      2.1232271     -55947.871    
        14   16.186228      16.186228      173.68088      70.088424           8214   2             -55948.196      16.186228      173.68088      70.088424      62019.511      2.1232271     -55948.196    
        16   16.186228      16.186228      173.68088      70.088424           8214   2             -55948.393      16.186228      173.68088      70.088424      62022.394      2.1232271     -55948.393    
        18   16.186228      16.186228      173.68088      70.088424           8214   2             -55948.607      16.186228      173.68088      70.088424      62021.742      2.1232271     -55948.607    
        20   16.186228      16.186228      173.68088      70.088424           8214   2             -55948.8        16.186228      173.68088      70.088424      61997.869      2.1232271     -55948.8      
        22   16.186228      16.186228      173.68088      70.088424           8214   2             -55948.973      16.186228      173.68088      70.088424      61966.552      2.1232271     -55948.973    
        24   16.186228      16.186228      173.68088      70.088424           8214   2             -55949.036      16.186228      173.68088      70.088424      61958.149      2.1232271     -55949.036    
        26   16.186228      16.186228      173.68088      70.088424           8214   2             -55949.109      16.186228      173.68088      70.088424      61926.469      2.1232271     -55949.109    
        28   16.186228      16.186228      173.68088      70.088424           8214   2             -55949.176      16.186228      173.68088      70.088424      61913.594      2.1232271     -55949.176    
        30   16.186228      16.186228      173.68088      70.088424           8214   2             -55949.23       16.186228      173.68088      70.088424      61920.409      2.1232271     -55949.23     
        32   16.186228      16.186228      173.68088      70.088424           8214   2             -55949.277      16.186228      173.68088      70.088424      61922.179      2.1232271     -55949.277    
        34   16.186228      16.186228      173.68088      70.088424           8214   2             -55949.335      16.186228      173.68088      70.088424      61914.525      2.1232271     -55949.335    
        36   16.186228      16.186228      173.68088      70.088424           8214   2             -55949.355      16.186228      173.68088      70.088424      61912.107      2.1232271     -55949.355    
        38   16.186228      16.186228      173.68088      70.088424           8214   2             -55949.364      16.186228      173.68088      70.088424      61906.978      2.1232271     -55949.364    
        40   16.186228      16.186228      173.68088      70.088424           8214   2             -55949.373      16.186228      173.68088      70.088424      61897.579      2.1232271     -55949.373    
        42   16.186228      16.186228      173.68088      70.088424           8214   2             -55949.38       16.186228      173.68088      70.088424      61894.024      2.1232271     -55949.38     
        44   16.186228      16.186228      173.68088      70.088424           8214   2             -55949.386      16.186228      173.68088      70.088424      61897.186      2.1232271     -55949.386    
        46   16.186228      16.186228      173.68088      70.088424           8214   2             -55949.394      16.186228      173.68088      70.088424      61898.492      2.1232271     -55949.394    
        48   16.186228      16.186228      173.68088      70.088424           8214   2             -55949.402      16.186228      173.68088      70.088424      61893.709      2.1232271     -55949.402    
        50   16.186228      16.186228      173.68088      70.088424           8214   2             -55949.408      16.186228      173.68088      70.088424      61892.046      2.1232271     -55949.408    
        52   16.186228      16.186228      173.68088      70.088424           8214   2             -55949.411      16.186228      173.68088      70.088424      61890.216      2.1232271     -55949.411    
        54   16.186228      16.186228      173.68088      70.088424           8214   2             -55949.415      16.186228      173.68088      70.088424      61888.702      2.1232271     -55949.415    
        56   16.186228      16.186228      173.68088      70.088424           8214   2             -55949.419      16.186228      173.68088      70.088424      61887.267      2.1232271     -55949.419    
        57   16.186228      16.186228      173.68088      70.088424           8214   2             -55949.42       16.186228      173.68088      70.088424      61886.885      2.1232271     -55949.42     
Loop time of 0.587439 on 1 procs for 57 steps with 8214 atoms

98.0% CPU use with 1 MPI tasks x 1 OpenMP threads

Minimization stats:
  Stopping criterion = energy tolerance
  Energy initial, next-to-last, final = 
     -55910.5617693019  -55949.4190698567  -55949.4196221984
  Force two-norm initial, final = 18.63921 0.076219648
  Force max component initial, final = 3.6912165 0.0047625671
  Final line search alpha, max atom move = 0.25 0.0011906418
  Iterations, force evaluations = 57 160

MPI task timing breakdown:
Section |  min time  |  avg time  |  max time  |%varavg| %total
---------------------------------------------------------------
Pair    | 0.56416    | 0.56416    | 0.56416    |   0.0 | 96.04
Neigh   | 0          | 0          | 0          |   0.0 |  0.00
Comm    | 0.0039885  | 0.0039885  | 0.0039885  |   0.0 |  0.68
Output  | 0.0017723  | 0.0017723  | 0.0017723  |   0.0 |  0.30
Modify  | 0.0031875  | 0.0031875  | 0.0031875  |   0.0 |  0.54
Other   |            | 0.01433    |            |       |  2.44

Nlocal:           8214 ave        8214 max        8214 min
Histogram: 1 0 0 0 0 0 0 0 0 0
Nghost:           6190 ave        6190 max        6190 min
Histogram: 1 0 0 0 0 0 0 0 0 0
Neighs:         225064 ave      225064 max      225064 min
Histogram: 1 0 0 0 0 0 0 0 0 0

Total # of neighbors = 225064
Ave neighs/atom = 27.400049
Neighbor list builds = 0
Dangerous builds = 0
Total wall time: 0:00:00
LAMMPS (27 Jun 2024)
OMP_NUM_THREADS environment is not set. Defaulting to 1 thread. (src/comm.cpp:98)
  using 1 OpenMP thread(s) per MPI task
Reading data file ...
  orthogonal box = (0 0 0) to (16.186228 171.68088 70.088424)
  1 by 1 by 1 MPI processor grid
  reading atoms ...
  8214 atoms
  read_data CPU = 0.014 seconds
System init for write_data ...
Neighbor list info ...
  update: every = 1 steps, delay = 5 steps, check = yes
  max neighbors/atom: 2000, page size: 100000
  master list distance cutoff = 6.2
  ghost atom cutoff = 6.2
  binsize = 3.1, bins = 6 56 23
  1 neighbor lists, perpetual/occasional/extra = 1 0 0
  (1) pair eam/fs, perpetual
      attributes: half, newton on
      pair build: half/bin/atomonly/newton
      stencil: half/bin/3d
      bin: standard
0 atoms in group ulayer
Deleted 0 atoms, new total = 8214
44 atoms in group lb
360 atoms in group bb
92 atoms in group rb
354 atoms in group ub
Changing box ...
  orthogonal box = (0 0 0) to (16.186228 173.68088 70.088424)

CITE-CITE-CITE-CITE-CITE-CITE-CITE-CITE-CITE-CITE-CITE-CITE-CITE

Your simulation uses code contributions which should be cited:
- Type Label Framework: https://doi.org/10.1021/acs.jpcb.3c08419
The log file lists these citations in BibTeX format.

CITE-CITE-CITE-CITE-CITE-CITE-CITE-CITE-CITE-CITE-CITE-CITE-CITE

Switching to 'neigh_modify every 1 delay 0 check yes' setting during minimization
Setting up cg style minimization ...
  Unit style    : metal
  Current step  : 0
WARNING: A per-atom density exceeded rhomax of EAM potential table - a linear extrapolation to the energy was made (src/MANYBODY/pair_eam.cpp:334)
Per MPI rank memory allocation (min/avg/max) = 5.944 | 5.944 | 5.944 Mbytes
   Step           Lx             Lx             Ly             Lz          Atoms         Temp          PotEng           Lx             Ly             Lz           Press          c_KET          c_PET     
         0   16.186228      16.186228      173.68088      70.088424           8214   2             -55904.467      16.186228      173.68088      70.088424      62991.311      2.1232271     -55904.467    
         2   16.186228      16.186228      173.68088      70.088424           8214   2             -55919.435      16.186228      173.68088      70.088424      62964.382      2.1232271     -55919.435    
         4   16.186228      16.186228      173.68088      70.088424           8214   2             -55929.025      16.186228      173.68088      70.088424      62878.094      2.1232271     -55929.025    
         6   16.186228      16.186228      173.68088      70.088424           8214   2             -55936.357      16.186228      173.68088      70.088424      62604.725      2.1232271     -55936.357    
         8   16.186228      16.186228      173.68088      70.088424           8214   2             -55939.008      16.186228      173.68088      70.088424      62430.069      2.1232271     -55939.008    
        10   16.186228      16.186228      173.68088      70.088424           8214   2             -55941.067      16.186228      173.68088      70.088424      62171.181      2.1232271     -55941.067    
        12   16.186228      16.186228      173.68088      70.088424           8214   2             -55941.784      16.186228      173.68088      70.088424      62105.634      2.1232271     -55941.784    
        14   16.186228      16.186228      173.68088      70.088424           8214   2             -55942.109      16.186228      173.68088      70.088424      62100.088      2.1232271     -55942.109    
        16   16.186228      16.186228      173.68088      70.088424           8214   2             -55942.306      16.186228      173.68088      70.088424      62102.787      2.1232271     -55942.306    
        18   16.186228      16.186228      173.68088      70.088424           8214   2             -55942.521      16.186228      173.68088      70.088424      62101.948      2.1232271     -55942.521    
        20   16.186228      16.186228      173.68088      70.088424           8214   2             -55942.714      16.186228      173.68088      70.088424      62077.992      2.1232271     -55942.714    
        22   16.186228      16.186228      173.68088      70.088424           8214   2             -55942.888      16.186228      173.68088      70.088424      62046.59       2.1232271     -55942.888    
        24   16.186228      16.186228      173.68088      70.088424           8214   2             -55942.95       16.186228      173.68088      70.088424      62038.161      2.1232271     -55942.95     
        26   16.186228      16.186228      173.68088      70.088424           8214   2             -55943.023      16.186228      173.68088      70.088424      62006.43       2.1232271     -55943.023    
        28   16.186228      16.186228      173.68088      70.088424           8214   2             -55943.09       16.186228      173.68088      70.088424      61993.863      2.1232271     -55943.09     
        30   16.186228      16.186228      173.68088      70.088424           8214   2             -55943.144      16.186228      173.68088      70.088424      62000.701      2.1232271     -55943.144    
        32   16.186228      16.186228      173.68088      70.088424           8214   2             -55943.19       16.186228      173.68088      70.088424      62002.246      2.1232271     -55943.19     
        34   16.186228      16.186228      173.68088      70.088424           8214   2             -55943.245      16.186228      173.68088      70.088424      61994.482      2.1232271     -55943.245    
        36   16.186228      16.186228      173.68088      70.088424           8214   2             -55943.275      16.186228      173.68088      70.088424      61988.345      2.1232271     -55943.275    
        38   16.186228      16.186228      173.68088      70.088424           8214   2             -55943.29       16.186228      173.68088      70.088424      61985.72       2.1232271     -55943.29     
        40   16.186228      16.186228      173.68088      70.088424           8214   2             -55943.296      16.186228      173.68088      70.088424      61980.526      2.1232271     -55943.296    
        42   16.186228      16.186228      173.68088      70.088424           8214   2             -55943.304      16.186228      173.68088      70.088424      61972.267      2.1232271     -55943.304    
        44   16.186228      16.186228      173.68088      70.088424           8214   2             -55943.315      16.186228      173.68088      70.088424      61962.881      2.1232271     -55943.315    
        46   16.186228      16.186228      173.68088      70.088424           8214   2             -55943.33       16.186228      173.68088      70.088424      61953.936      2.1232271     -55943.33     
        48   16.186228      16.186228      173.68088      70.088424           8214   2             -55943.343      16.186228      173.68088      70.088424      61959.165      2.1232271     -55943.343    
        50   16.186228      16.186228      173.68088      70.088424           8214   2             -55943.345      16.186228      173.68088      70.088424      61960.029      2.1232271     -55943.345    
        52   16.186228      16.186228      173.68088      70.088424           8214   2             -55943.346      16.186228      173.68088      70.088424      61958.094      2.1232271     -55943.346    
Loop time of 0.530111 on 1 procs for 52 steps with 8214 atoms

98.3% CPU use with 1 MPI tasks x 1 OpenMP threads

Minimization stats:
  Stopping criterion = energy tolerance
  Energy initial, next-to-last, final = 
     -55904.4667869413  -55943.3458231527  -55943.3463434616
  Force two-norm initial, final = 18.639855 0.046420513
  Force max component initial, final = 3.6910725 0.0043805982
  Final line search alpha, max atom move = 0.125 0.00054757478
  Iterations, force evaluations = 52 143

MPI task timing breakdown:
Section |  min time  |  avg time  |  max time  |%varavg| %total
---------------------------------------------------------------
Pair    | 0.508      | 0.508      | 0.508      |   0.0 | 95.83
Neigh   | 0          | 0          | 0          |   0.0 |  0.00
Comm    | 0.0035829  | 0.0035829  | 0.0035829  |   0.0 |  0.68
Output  | 0.0018042  | 0.0018042  | 0.0018042  |   0.0 |  0.34
Modify  | 0.0029047  | 0.0029047  | 0.0029047  |   0.0 |  0.55
Other   |            | 0.01382    |            |       |  2.61

Nlocal:           8214 ave        8214 max        8214 min
Histogram: 1 0 0 0 0 0 0 0 0 0
Nghost:           6190 ave        6190 max        6190 min
Histogram: 1 0 0 0 0 0 0 0 0 0
Neighs:         225064 ave      225064 max      225064 min
Histogram: 1 0 0 0 0 0 0 0 0 0

Total # of neighbors = 225064
Ave neighs/atom = 27.400049
Neighbor list builds = 0
Dangerous builds = 0
Total wall time: 0:00:00
LAMMPS (27 Jun 2024)
OMP_NUM_THREADS environment is not set. Defaulting to 1 thread. (src/comm.cpp:98)
  using 1 OpenMP thread(s) per MPI task
Reading data file ...
  orthogonal box = (0 0 0) to (16.186228 171.68088 70.088424)
  1 by 1 by 1 MPI processor grid
  reading atoms ...
  8214 atoms
  read_data CPU = 0.014 seconds
System init for write_data ...
Neighbor list info ...
  update: every = 1 steps, delay = 5 steps, check = yes
  max neighbors/atom: 2000, page size: 100000
  master list distance cutoff = 6.2
  ghost atom cutoff = 6.2
  binsize = 3.1, bins = 6 56 23
  1 neighbor lists, perpetual/occasional/extra = 1 0 0
  (1) pair eam/fs, perpetual
      attributes: half, newton on
      pair build: half/bin/atomonly/newton
      stencil: half/bin/3d
      bin: standard
0 atoms in group ulayer
Deleted 0 atoms, new total = 8214
44 atoms in group lb
360 atoms in group bb
92 atoms in group rb
354 atoms in group ub
Changing box ...
  orthogonal box = (0 0 0) to (16.186228 173.68088 70.088424)

CITE-CITE-CITE-CITE-CITE-CITE-CITE-CITE-CITE-CITE-CITE-CITE-CITE

Your simulation uses code contributions which should be cited:
- Type Label Framework: https://doi.org/10.1021/acs.jpcb.3c08419
The log file lists these citations in BibTeX format.

CITE-CITE-CITE-CITE-CITE-CITE-CITE-CITE-CITE-CITE-CITE-CITE-CITE

Switching to 'neigh_modify every 1 delay 0 check yes' setting during minimization
Setting up cg style minimization ...
  Unit style    : metal
  Current step  : 0
WARNING: A per-atom density exceeded rhomax of EAM potential table - a linear extrapolation to the energy was made (src/MANYBODY/pair_eam.cpp:334)
Per MPI rank memory allocation (min/avg/max) = 5.944 | 5.944 | 5.944 Mbytes
   Step           Lx             Lx             Ly             Lz          Atoms         Temp          PotEng           Lx             Ly             Lz           Press          c_KET          c_PET     
         0   16.186228      16.186228      173.68088      70.088424           8214   2             -54996.872      16.186228      173.68088      70.088424      75407.004      2.1232271     -54996.872    
         2   16.186228      16.186228      173.68088      70.088424           8214   2             -55012.128      16.186228      173.68088      70.088424      75366.549      2.1232271     -55012.128    
         4   16.186228      16.186228      173.68088      70.088424           8214   2             -55022.047      16.186228      173.68088      70.088424      75260.389      2.1232271     -55022.047    
         6   16.186228      16.186228      173.68088      70.088424           8214   2             -55029.823      16.186228      173.68088      70.088424      74951.62       2.1232271     -55029.823    
         8   16.186228      16.186228      173.68088      70.088424           8214   2             -55032.665      16.186228      173.68088      70.088424      74758.564      2.1232271     -55032.665    
        10   16.186228      16.186228      173.68088      70.088424           8214   2             -55034.898      16.186228      173.68088      70.088424      74473.315      2.1232271     -55034.898    
        12   16.186228      16.186228      173.68088      70.088424           8214   2             -55035.456      16.186228      173.68088      70.088424      74473.681      2.1232271     -55035.456    
        14   16.186228      16.186228      173.68088      70.088424           8214   2             -55035.97       16.186228      173.68088      70.088424      74461.401      2.1232271     -55035.97     
        16   16.186228      16.186228      173.68088      70.088424           8214   2             -55036.405      16.186228      173.68088      70.088424      74365.578      2.1232271     -55036.405    
        18   16.186228      16.186228      173.68088      70.088424           8214   2             -55036.646      16.186228      173.68088      70.088424      74339.553      2.1232271     -55036.646    
        20   16.186228      16.186228      173.68088      70.088424           8214   2             -55036.78       16.186228      173.68088      70.088424      74313.004      2.1232271     -55036.78     
        22   16.186228      16.186228      173.68088      70.088424           8214   2             -55036.909      16.186228      173.68088      70.088424      74289.814      2.1232271     -55036.909    
        24   16.186228      16.186228      173.68088      70.088424           8214   2             -55037.013      16.186228      173.68088      70.088424      74291.47       2.1232271     -55037.013    
        26   16.186228      16.186228      173.68088      70.088424           8214   2             -55037.137      16.186228      173.68088      70.088424      74294.954      2.1232271     -55037.137    
        28   16.186228      16.186228      173.68088      70.088424           8214   2             -55037.201      16.186228      173.68088      70.088424      74292.931      2.1232271     -55037.201    
        30   16.186228      16.186228      173.68088      70.088424           8214   2             -55037.239      16.186228      173.68088      70.088424      74279.189      2.1232271     -55037.239    
        32   16.186228      16.186228      173.68088      70.088424           8214   2             -55037.285      16.186228      173.68088      70.088424      74250.761      2.1232271     -55037.285    
        34   16.186228      16.186228      173.68088      70.088424           8214   2             -55037.306      16.186228      173.68088      70.088424      74241.126      2.1232271     -55037.306    
        36   16.186228      16.186228      173.68088      70.088424           8214   2             -55037.326      16.186228      173.68088      70.088424      74248.128      2.1232271     -55037.326    
        38   16.186228      16.186228      173.68088      70.088424           8214   2             -55037.343      16.186228      173.68088      70.088424      74246.39       2.1232271     -55037.343    
        40   16.186228      16.186228      173.68088      70.088424           8214   2             -55037.371      16.186228      173.68088      70.088424      74248.222      2.1232271     -55037.371    
        42   16.186228      16.186228      173.68088      70.088424           8214   2             -55037.384      16.186228      173.68088      70.088424      74248.916      2.1232271     -55037.384    
        44   16.186228      16.186228      173.68088      70.088424           8214   2             -55037.391      16.186228      173.68088      70.088424      74246.739      2.1232271     -55037.391    
        46   16.186228      16.186228      173.68088      70.088424           8214   2             -55037.397      16.186228      173.68088      70.088424      74240.485      2.1232271     -55037.397    
        48   16.186228      16.186228      173.68088      70.088424           8214   2             -55037.406      16.186228      173.68088      70.088424      74239.301      2.1232271     -55037.406    
        50   16.186228      16.186228      173.68088      70.088424           8214   2             -55037.409      16.186228      173.68088      70.088424      74239.701      2.1232271     -55037.409    
        52   16.186228      16.186228      173.68088      70.088424           8214   2             -55037.418      16.186228      173.68088      70.088424      74236.353      2.1232271     -55037.418    
        54   16.186228      16.186228      173.68088      70.088424           8214   2             -55037.428      16.186228      173.68088      70.088424      74234.381      2.1232271     -55037.428    
        56   16.186228      16.186228      173.68088      70.088424           8214   2             -55037.434      16.186228      173.68088      70.088424      74229.97       2.1232271     -55037.434    
        58   16.186228      16.186228      173.68088      70.088424           8214   2             -55037.437      16.186228      173.68088      70.088424      74229.282      2.1232271     -55037.437    
Loop time of 0.623473 on 1 procs for 58 steps with 8214 atoms

96.2% CPU use with 1 MPI tasks x 1 OpenMP threads

Minimization stats:
  Stopping criterion = energy tolerance
  Energy initial, next-to-last, final = 
     -54996.8722451141  -55037.4367226435  -55037.4371393289
  Force two-norm initial, final = 18.866663 0.047997262
  Force max component initial, final = 3.7207381 0.0028710646
  Final line search alpha, max atom move = 0.0625 0.00017944154
  Iterations, force evaluations = 58 174

MPI task timing breakdown:
Section |  min time  |  avg time  |  max time  |%varavg| %total
---------------------------------------------------------------
Pair    | 0.59908    | 0.59908    | 0.59908    |   0.0 | 96.09
Neigh   | 0          | 0          | 0          |   0.0 |  0.00
Comm    | 0.004106   | 0.004106   | 0.004106   |   0.0 |  0.66
Output  | 0.0018905  | 0.0018905  | 0.0018905  |   0.0 |  0.30
Modify  | 0.0034626  | 0.0034626  | 0.0034626  |   0.0 |  0.56
Other   |            | 0.01493    |            |       |  2.40

Nlocal:           8214 ave        8214 max        8214 min
Histogram: 1 0 0 0 0 0 0 0 0 0
Nghost:           6190 ave        6190 max        6190 min
Histogram: 1 0 0 0 0 0 0 0 0 0
Neighs:         225064 ave      225064 max      225064 min
Histogram: 1 0 0 0 0 0 0 0 0 0

Total # of neighbors = 225064
Ave neighs/atom = 27.400049
Neighbor list builds = 0
Dangerous builds = 0
Total wall time: 0:00:00
LAMMPS (27 Jun 2024)
OMP_NUM_THREADS environment is not set. Defaulting to 1 thread. (src/comm.cpp:98)
  using 1 OpenMP thread(s) per MPI task
Reading data file ...
  orthogonal box = (0 0 0) to (16.186228 171.68088 70.088424)
  1 by 1 by 1 MPI processor grid
  reading atoms ...
  8214 atoms
  read_data CPU = 0.015 seconds
System init for write_data ...
Neighbor list info ...
  update: every = 1 steps, delay = 5 steps, check = yes
  max neighbors/atom: 2000, page size: 100000
  master list distance cutoff = 6.2
  ghost atom cutoff = 6.2
  binsize = 3.1, bins = 6 56 23
  1 neighbor lists, perpetual/occasional/extra = 1 0 0
  (1) pair eam/fs, perpetual
      attributes: half, newton on
      pair build: half/bin/atomonly/newton
      stencil: half/bin/3d
      bin: standard
0 atoms in group ulayer
Deleted 0 atoms, new total = 8214
44 atoms in group lb
360 atoms in group bb
92 atoms in group rb
354 atoms in group ub
Changing box ...
  orthogonal box = (0 0 0) to (16.186228 173.68088 70.088424)

CITE-CITE-CITE-CITE-CITE-CITE-CITE-CITE-CITE-CITE-CITE-CITE-CITE

Your simulation uses code contributions which should be cited:
- Type Label Framework: https://doi.org/10.1021/acs.jpcb.3c08419
The log file lists these citations in BibTeX format.

CITE-CITE-CITE-CITE-CITE-CITE-CITE-CITE-CITE-CITE-CITE-CITE-CITE

Switching to 'neigh_modify every 1 delay 0 check yes' setting during minimization
Setting up cg style minimization ...
  Unit style    : metal
  Current step  : 0
WARNING: A per-atom density exceeded rhomax of EAM potential table - a linear extrapolation to the energy was made (src/MANYBODY/pair_eam.cpp:334)
Per MPI rank memory allocation (min/avg/max) = 5.944 | 5.944 | 5.944 Mbytes
   Step           Lx             Lx             Ly             Lz          Atoms         Temp          PotEng           Lx             Ly             Lz           Press          c_KET          c_PET     
         0   16.186228      16.186228      173.68088      70.088424           8214   2             -55887.59       16.186228      173.68088      70.088424      63167.74       2.1232271     -55887.59     
         2   16.186228      16.186228      173.68088      70.088424           8214   2             -55902.561      16.186228      173.68088      70.088424      63140.593      2.1232271     -55902.561    
         4   16.186228      16.186228      173.68088      70.088424           8214   2             -55912.156      16.186228      173.68088      70.088424      63053.996      2.1232271     -55912.156    
         6   16.186228      16.186228      173.68088      70.088424           8214   2             -55919.495      16.186228      173.68088      70.088424      62780.104      2.1232271     -55919.495    
         8   16.186228      16.186228      173.68088      70.088424           8214   2             -55922.148      16.186228      173.68088      70.088424      62605.192      2.1232271     -55922.148    
        10   16.186228      16.186228      173.68088      70.088424           8214   2             -55924.209      16.186228      173.68088      70.088424      62345.924      2.1232271     -55924.209    
        12   16.186228      16.186228      173.68088      70.088424           8214   2             -55924.926      16.186228      173.68088      70.088424      62281.238      2.1232271     -55924.926    
        14   16.186228      16.186228      173.68088      70.088424           8214   2             -55925.251      16.186228      173.68088      70.088424      62275.488      2.1232271     -55925.251    
        16   16.186228      16.186228      173.68088      70.088424           8214   2             -55925.449      16.186228      173.68088      70.088424      62277.771      2.1232271     -55925.449    
        18   16.186228      16.186228      173.68088      70.088424           8214   2             -55925.665      16.186228      173.68088      70.088424      62276.517      2.1232271     -55925.665    
        20   16.186228      16.186228      173.68088      70.088424           8214   2             -55925.859      16.186228      173.68088      70.088424      62252.263      2.1232271     -55925.859    
        22   16.186228      16.186228      173.68088      70.088424           8214   2             -55926.034      16.186228      173.68088      70.088424      62220.774      2.1232271     -55926.034    
        24   16.186228      16.186228      173.68088      70.088424           8214   2             -55926.096      16.186228      173.68088      70.088424      62212.245      2.1232271     -55926.096    
        26   16.186228      16.186228      173.68088      70.088424           8214   2             -55926.167      16.186228      173.68088      70.088424      62181.444      2.1232271     -55926.167    
        28   16.186228      16.186228      173.68088      70.088424           8214   2             -55926.232      16.186228      173.68088      70.088424      62167.959      2.1232271     -55926.232    
        30   16.186228      16.186228      173.68088      70.088424           8214   2             -55926.257      16.186228      173.68088      70.088424      62176.431      2.1232271     -55926.257    
        32   16.186228      16.186228      173.68088      70.088424           8214   2             -55926.289      16.186228      173.68088      70.088424      62186.996      2.1232271     -55926.289    
        34   16.186228      16.186228      173.68088      70.088424           8214   2             -55926.314      16.186228      173.68088      70.088424      62171.101      2.1232271     -55926.314    
        36   16.186228      16.186228      173.68088      70.088424           8214   2             -55926.337      16.186228      173.68088      70.088424      62173.066      2.1232271     -55926.337    
        38   16.186228      16.186228      173.68088      70.088424           8214   2             -55926.35       16.186228      173.68088      70.088424      62172.419      2.1232271     -55926.35     
        40   16.186228      16.186228      173.68088      70.088424           8214   2             -55926.389      16.186228      173.68088      70.088424      62155.478      2.1232271     -55926.389    
        42   16.186228      16.186228      173.68088      70.088424           8214   2             -55926.436      16.186228      173.68088      70.088424      62148.829      2.1232271     -55926.436    
        44   16.186228      16.186228      173.68088      70.088424           8214   2             -55926.442      16.186228      173.68088      70.088424      62150.145      2.1232271     -55926.442    
        46   16.186228      16.186228      173.68088      70.088424           8214   2             -55926.446      16.186228      173.68088      70.088424      62149.989      2.1232271     -55926.446    
        48   16.186228      16.186228      173.68088      70.088424           8214   2             -55926.459      16.186228      173.68088      70.088424      62153.295      2.1232271     -55926.459    
[...]
        14   16.186228      16.186228      173.68088      70.088424           8214   2             -56691.418      16.186228      173.68088      70.088424      54785.395      2.1232271     -56691.418    
        16   16.186228      16.186228      173.68088      70.088424           8214   2             -56691.646      16.186228      173.68088      70.088424      54805.486      2.1232271     -56691.646    
        18   16.186228      16.186228      173.68088      70.088424           8214   2             -56691.818      16.186228      173.68088      70.088424      54817.607      2.1232271     -56691.818    
        20   16.186228      16.186228      173.68088      70.088424           8214   2             -56691.913      16.186228      173.68088      70.088424      54809.341      2.1232271     -56691.913    
        22   16.186228      16.186228      173.68088      70.088424           8214   2             -56692.023      16.186228      173.68088      70.088424      54779.326      2.1232271     -56692.023    
        24   16.186228      16.186228      173.68088      70.088424           8214   2             -56692.138      16.186228      173.68088      70.088424      54749.126      2.1232271     -56692.138    
        26   16.186228      16.186228      173.68088      70.088424           8214   2             -56692.283      16.186228      173.68088      70.088424      54723.161      2.1232271     -56692.283    
        28   16.186228      16.186228      173.68088      70.088424           8214   2             -56692.373      16.186228      173.68088      70.088424      54711.049      2.1232271     -56692.373    
        30   16.186228      16.186228      173.68088      70.088424           8214   2             -56692.39       16.186228      173.68088      70.088424      54711.961      2.1232271     -56692.39     
        32   16.186228      16.186228      173.68088      70.088424           8214   2             -56692.405      16.186228      173.68088      70.088424      54718.959      2.1232271     -56692.405    
        34   16.186228      16.186228      173.68088      70.088424           8214   2             -56692.429      16.186228      173.68088      70.088424      54721.105      2.1232271     -56692.429    
        36   16.186228      16.186228      173.68088      70.088424           8214   2             -56692.441      16.186228      173.68088      70.088424      54719.635      2.1232271     -56692.441    
        38   16.186228      16.186228      173.68088      70.088424           8214   2             -56692.45       16.186228      173.68088      70.088424      54717.796      2.1232271     -56692.45     
        40   16.186228      16.186228      173.68088      70.088424           8214   2             -56692.456      16.186228      173.68088      70.088424      54715.541      2.1232271     -56692.456    
        42   16.186228      16.186228      173.68088      70.088424           8214   2             -56692.482      16.186228      173.68088      70.088424      54696.991      2.1232271     -56692.482    
        44   16.186228      16.186228      173.68088      70.088424           8214   2             -56692.498      16.186228      173.68088      70.088424      54697.663      2.1232271     -56692.498    
        46   16.186228      16.186228      173.68088      70.088424           8214   2             -56692.503      16.186228      173.68088      70.088424      54700.866      2.1232271     -56692.503    
        48   16.186228      16.186228      173.68088      70.088424           8214   2             -56692.507      16.186228      173.68088      70.088424      54705.419      2.1232271     -56692.507    
        50   16.186228      16.186228      173.68088      70.088424           8214   2             -56692.509      16.186228      173.68088      70.088424      54705.908      2.1232271     -56692.509    
        52   16.186228      16.186228      173.68088      70.088424           8214   2             -56692.511      16.186228      173.68088      70.088424      54704.119      2.1232271     -56692.511    
        54   16.186228      16.186228      173.68088      70.088424           8214   2             -56692.513      16.186228      173.68088      70.088424      54701.808      2.1232271     -56692.513    
        56   16.186228      16.186228      173.68088      70.088424           8214   2             -56692.516      16.186228      173.68088      70.088424      54702.23       2.1232271     -56692.516    
        58   16.186228      16.186228      173.68088      70.088424           8214   2             -56692.518      16.186228      173.68088      70.088424      54701.935      2.1232271     -56692.518    
        60   16.186228      16.186228      173.68088      70.088424           8214   2             -56692.519      16.186228      173.68088      70.088424      54700.414      2.1232271     -56692.519    
Loop time of 0.61183 on 1 procs for 60 steps with 8214 atoms

98.1% CPU use with 1 MPI tasks x 1 OpenMP threads

Minimization stats:
  Stopping criterion = energy tolerance
  Energy initial, next-to-last, final = 
     -56654.5967339709  -56692.5184019462  -56692.5188592379
  Force two-norm initial, final = 18.619394 0.037884154
  Force max component initial, final = 3.7116749 0.0015047488
  Final line search alpha, max atom move = 0.125 0.0001880936
  Iterations, force evaluations = 60 173

MPI task timing breakdown:
Section |  min time  |  avg time  |  max time  |%varavg| %total
---------------------------------------------------------------
Pair    | 0.58749    | 0.58749    | 0.58749    |   0.0 | 96.02
Neigh   | 0          | 0          | 0          |   0.0 |  0.00
Comm    | 0.0040637  | 0.0040637  | 0.0040637  |   0.0 |  0.66
Output  | 0.0019899  | 0.0019899  | 0.0019899  |   0.0 |  0.33
Modify  | 0.0034121  | 0.0034121  | 0.0034121  |   0.0 |  0.56
Other   |            | 0.01488    |            |       |  2.43

Nlocal:           8214 ave        8214 max        8214 min
Histogram: 1 0 0 0 0 0 0 0 0 0
Nghost:           6190 ave        6190 max        6190 min
Histogram: 1 0 0 0 0 0 0 0 0 0
Neighs:         225064 ave      225064 max      225064 min
Histogram: 1 0 0 0 0 0 0 0 0 0

Total # of neighbors = 225064
Ave neighs/atom = 27.400049
Neighbor list builds = 0
Dangerous builds = 0
Total wall time: 0:00:00
LAMMPS (27 Jun 2024)
OMP_NUM_THREADS environment is not set. Defaulting to 1 thread. (src/comm.cpp:98)
  using 1 OpenMP thread(s) per MPI task
Reading data file ...
  orthogonal box = (0 0 0) to (16.186228 171.68088 70.088424)
  1 by 1 by 1 MPI processor grid
  reading atoms ...
  8214 atoms
  read_data CPU = 0.014 seconds
System init for write_data ...
Neighbor list info ...
  update: every = 1 steps, delay = 5 steps, check = yes
  max neighbors/atom: 2000, page size: 100000
  master list distance cutoff = 6.2
  ghost atom cutoff = 6.2
  binsize = 3.1, bins = 6 56 23
  1 neighbor lists, perpetual/occasional/extra = 1 0 0
  (1) pair eam/fs, perpetual
      attributes: half, newton on
      pair build: half/bin/atomonly/newton
      stencil: half/bin/3d
      bin: standard
0 atoms in group ulayer
Deleted 0 atoms, new total = 8214
44 atoms in group lb
360 atoms in group bb
92 atoms in group rb
354 atoms in group ub
Changing box ...
  orthogonal box = (0 0 0) to (16.186228 173.68088 70.088424)

CITE-CITE-CITE-CITE-CITE-CITE-CITE-CITE-CITE-CITE-CITE-CITE-CITE

Your simulation uses code contributions which should be cited:
- Type Label Framework: https://doi.org/10.1021/acs.jpcb.3c08419
The log file lists these citations in BibTeX format.

CITE-CITE-CITE-CITE-CITE-CITE-CITE-CITE-CITE-CITE-CITE-CITE-CITE

Switching to 'neigh_modify every 1 delay 0 check yes' setting during minimization
Setting up cg style minimization ...
  Unit style    : metal
  Current step  : 0
WARNING: A per-atom density exceeded rhomax of EAM potential table - a linear extrapolation to the energy was made (src/MANYBODY/pair_eam.cpp:334)
Per MPI rank memory allocation (min/avg/max) = 5.944 | 5.944 | 5.944 Mbytes
   Step           Lx             Lx             Ly             Lz          Atoms         Temp          PotEng           Lx             Ly             Lz           Press          c_KET          c_PET     
         0   16.186228      16.186228      173.68088      70.088424           8214   2             -56654.6        16.186228      173.68088      70.088424      55634.263      2.1232271     -56654.6      
         2   16.186228      16.186228      173.68088      70.088424           8214   2             -56669.427      16.186228      173.68088      70.088424      55616.55       2.1232271     -56669.427    
         4   16.186228      16.186228      173.68088      70.088424           8214   2             -56678.836      16.186228      173.68088      70.088424      55543.102      2.1232271     -56678.836    
         6   16.186228      16.186228      173.68088      70.088424           8214   2             -56685.914      16.186228      173.68088      70.088424      55291.383      2.1232271     -56685.914    
         8   16.186228      16.186228      173.68088      70.088424           8214   2             -56688.454      16.186228      173.68088      70.088424      55127.479      2.1232271     -56688.454    
        10   16.186228      16.186228      173.68088      70.088424           8214   2             -56690.399      16.186228      173.68088      70.088424      54884.568      2.1232271     -56690.399    
        12   16.186228      16.186228      173.68088      70.088424           8214   2             -56691.081      16.186228      173.68088      70.088424      54782.798      2.1232271     -56691.081    
        14   16.186228      16.186228      173.68088      70.088424           8214   2             -56691.422      16.186228      173.68088      70.088424      54785.352      2.1232271     -56691.422    
        16   16.186228      16.186228      173.68088      70.088424           8214   2             -56691.65       16.186228      173.68088      70.088424      54805.443      2.1232271     -56691.65     
        18   16.186228      16.186228      173.68088      70.088424           8214   2             -56691.822      16.186228      173.68088      70.088424      54817.564      2.1232271     -56691.822    
        20   16.186228      16.186228      173.68088      70.088424           8214   2             -56691.917      16.186228      173.68088      70.088424      54809.298      2.1232271     -56691.917    
        22   16.186228      16.186228      173.68088      70.088424           8214   2             -56692.027      16.186228      173.68088      70.088424      54779.283      2.1232271     -56692.027    
        24   16.186228      16.186228      173.68088      70.088424           8214   2             -56692.142      16.186228      173.68088      70.088424      54749.083      2.1232271     -56692.142    
        26   16.186228      16.186228      173.68088      70.088424           8214   2             -56692.286      16.186228      173.68088      70.088424      54723.119      2.1232271     -56692.286    
        28   16.186228      16.186228      173.68088      70.088424           8214   2             -56692.376      16.186228      173.68088      70.088424      54711.007      2.1232271     -56692.376    
        30   16.186228      16.186228      173.68088      70.088424           8214   2             -56692.394      16.186228      173.68088      70.088424      54711.918      2.1232271     -56692.394    
        32   16.186228      16.186228      173.68088      70.088424           8214   2             -56692.409      16.186228      173.68088      70.088424      54718.917      2.1232271     -56692.409    
        34   16.186228      16.186228      173.68088      70.088424           8214   2             -56692.433      16.186228      173.68088      70.088424      54721.062      2.1232271     -56692.433    
        36   16.186228      16.186228      173.68088      70.088424           8214   2             -56692.444      16.186228      173.68088      70.088424      54719.592      2.1232271     -56692.444    
        38   16.186228      16.186228      173.68088      70.088424           8214   2             -56692.454      16.186228      173.68088      70.088424      54717.753      2.1232271     -56692.454    
        40   16.186228      16.186228      173.68088      70.088424           8214   2             -56692.46       16.186228      173.68088      70.088424      54715.498      2.1232271     -56692.46     
        42   16.186228      16.186228      173.68088      70.088424           8214   2             -56692.486      16.186228      173.68088      70.088424      54696.947      2.1232271     -56692.486    
        44   16.186228      16.186228      173.68088      70.088424           8214   2             -56692.502      16.186228      173.68088      70.088424      54697.62       2.1232271     -56692.502    
        46   16.186228      16.186228      173.68088      70.088424           8214   2             -56692.507      16.186228      173.68088      70.088424      54700.823      2.1232271     -56692.507    
        48   16.186228      16.186228      173.68088      70.088424           8214   2             -56692.511      16.186228      173.68088      70.088424      54705.374      2.1232271     -56692.511    
        50   16.186228      16.186228      173.68088      70.088424           8214   2             -56692.513      16.186228      173.68088      70.088424      54705.865      2.1232271     -56692.513    
        52   16.186228      16.186228      173.68088      70.088424           8214   2             -56692.514      16.186228      173.68088      70.088424      54704.077      2.1232271     -56692.514    
        54   16.186228      16.186228      173.68088      70.088424           8214   2             -56692.517      16.186228      173.68088      70.088424      54701.779      2.1232271     -56692.517    
        56   16.186228      16.186228      173.68088      70.088424           8214   2             -56692.519      16.186228      173.68088      70.088424      54702.198      2.1232271     -56692.519    
        58   16.186228      16.186228      173.68088      70.088424           8214   2             -56692.521      16.186228      173.68088      70.088424      54701.894      2.1232271     -56692.521    
        60   16.186228      16.186228      173.68088      70.088424           8214   2             -56692.522      16.186228      173.68088      70.088424      54700.399      2.1232271     -56692.522    
Loop time of 0.602151 on 1 procs for 60 steps with 8214 atoms

99.8% CPU use with 1 MPI tasks x 1 OpenMP threads

Minimization stats:
  Stopping criterion = energy tolerance
  Energy initial, next-to-last, final = 
     -56654.6002582722  -56692.5218981437   -56692.522345605
  Force two-norm initial, final = 18.619394 0.037370333
  Force max component initial, final = 3.711675 0.0014509177
  Final line search alpha, max atom move = 0.125 0.00018136471
  Iterations, force evaluations = 60 173

MPI task timing breakdown:
Section |  min time  |  avg time  |  max time  |%varavg| %total
---------------------------------------------------------------
Pair    | 0.57835    | 0.57835    | 0.57835    |   0.0 | 96.05
Neigh   | 0          | 0          | 0          |   0.0 |  0.00
Comm    | 0.0041578  | 0.0041578  | 0.0041578  |   0.0 |  0.69
Output  | 0.0017385  | 0.0017385  | 0.0017385  |   0.0 |  0.29
Modify  | 0.0033653  | 0.0033653  | 0.0033653  |   0.0 |  0.56
Other   |            | 0.01454    |            |       |  2.42

Nlocal:           8214 ave        8214 max        8214 min
Histogram: 1 0 0 0 0 0 0 0 0 0
Nghost:           6190 ave        6190 max        6190 min
Histogram: 1 0 0 0 0 0 0 0 0 0
Neighs:         225064 ave      225064 max      225064 min
Histogram: 1 0 0 0 0 0 0 0 0 0

Total # of neighbors = 225064
Ave neighs/atom = 27.400049
Neighbor list builds = 0
Dangerous builds = 0
Total wall time: 0:00:00
1



            * * * * * * * * * * * * * * * * * * * * * * * * * * * 
            *                                                   *
            *                    C O N M I N                    *
            *                                                   *
            *                FORTRAN PROGRAM FOR                *
            *                                                   *
            *         CONSTRAINED FUNCTION MINIMIZATION         *
            *                                                   *
            * * * * * * * * * * * * * * * * * * * * * * * * * * * 




     CONSTRAINED FUNCTION MINIMIZATION

     CONTROL PARAMETERS

     IPRINT  NDV    ITMAX    NCON    NSIDE  ICNDIR   NSCAL   NFDG
       2       3     100       0       1       4       0       1

     LINOBJ  ITRM     N1      N2      N3      N4      N5
       0       3       5       6       4       4       8

         CT              CTMIN           CTL             CTLMIN
     -0.10000E+00     0.10000E-02    -0.10000E-01     0.10000E-02

         THETA           PHI             DELFUN          DABFUN
      0.10000E+01     0.50000E+01     0.10000E-07     0.10000E-07

         FDCH            FDCHM           ALPHAX          ABOBJ1
      0.10000E-04     0.10000E-04     0.10000E+00     0.10000E+00

     LOWER BOUNDS ON DECISION VARIABLES (VLB)
       1)   -0.20000E+01 -0.20000E+01 -0.20000E+01

     UPPER BOUNDS ON DECISION VARIABLES (VUB)
       1)    0.20000E+01  0.20000E+01  0.20000E+01


     INITIAL FUNCTION INFORMATION

     OBJ =   0.726612E-01

     DECISION VARIABLES (X-VECTOR)
       1)    0.12000E+01  0.10000E-01 -0.10000E+00
 




     ITER =    1     OBJ =   0.70774E-01

     DECISION VARIABLES (X-VECTOR)
       1)    0.12000E+01  0.10157E-01 -0.10002E+00




     ITER =    2     OBJ =   0.67686E-01

     DECISION VARIABLES (X-VECTOR)
       1)    0.11999E+01  0.88758E-02 -0.10068E+00




     ITER =    3     OBJ =   0.67686E-01     NO CHANGE IN OBJ

     DECISION VARIABLES (X-VECTOR)
       1)    0.11999E+01  0.88758E-02 -0.10068E+00




     ITER =    4     OBJ =   0.67686E-01     NO CHANGE IN OBJ

     DECISION VARIABLES (X-VECTOR)
       1)    0.11999E+01  0.88758E-02 -0.10068E+00




     ITER =    5     OBJ =   0.67668E-01

     DECISION VARIABLES (X-VECTOR)
       1)    0.11999E+01  0.88750E-02 -0.10068E+00




     ITER =    6     OBJ =   0.67667E-01

     DECISION VARIABLES (X-VECTOR)
       1)    0.11999E+01  0.88749E-02 -0.10068E+00




     ITER =    7     OBJ =   0.67666E-01

     DECISION VARIABLES (X-VECTOR)
       1)    0.11999E+01  0.88749E-02 -0.10068E+00




     ITER =    8     OBJ =   0.67665E-01

     DECISION VARIABLES (X-VECTOR)
       1)    0.11999E+01  0.88749E-02 -0.10068E+00




     ITER =    9     OBJ =   0.67665E-01

     DECISION VARIABLES (X-VECTOR)
       1)    0.11999E+01  0.88749E-02 -0.10068E+00




     ITER =   10     OBJ =   0.67664E-01

     DECISION VARIABLES (X-VECTOR)
       1)    0.11999E+01  0.88748E-02 -0.10068E+00




     ITER =   11     OBJ =   0.67664E-01     NO CHANGE IN OBJ

     DECISION VARIABLES (X-VECTOR)
       1)    0.11999E+01  0.88748E-02 -0.10068E+00




     ITER =   12     OBJ =   0.67664E-01     NO CHANGE IN OBJ

     DECISION VARIABLES (X-VECTOR)
       1)    0.11999E+01  0.88748E-02 -0.10068E+00




     ITER =   13     OBJ =   0.67664E-01     NO CHANGE IN OBJ

     DECISION VARIABLES (X-VECTOR)
       1)    0.11999E+01  0.88748E-02 -0.10068E+00
1



    FINAL OPTIMIZATION INFORMATION

     OBJ =   0.676639E-01

     DECISION VARIABLES (X-VECTOR)
       1)    0.11999E+01  0.88748E-02 -0.10068E+00

     THERE ARE    0 ACTIVE SIDE CONSTRAINTS

     TERMINATION CRITERION
          ABS(1-OBJ(I-1)/OBJ(I)) LESS THAN DELFUN FOR  3 ITERATIONS
          ABS(OBJ(I)-OBJ(I-1))   LESS THAN DABFUN FOR  3 ITERATIONS

     NUMBER OF ITERATIONS =   13

     OBJECTIVE FUNCTION WAS EVALUATED           40  TIMES

     GRADIENT OF OBJECTIVE WAS CALCULATED       13  TIMES
